 Entering Gaussian System, Link 0=g09
 Input=antifer_stab.com
 Output=antifer_stab.out
 Initial command:
 /home/support/apps/apps/gaussian/intel/15.0.6/g09/l1.exe /tmp/Gau-31422.inp -scrdir=/tmp/
 Entering Link 1 = /home/support/apps/apps/gaussian/intel/15.0.6/g09/l1.exe PID=     31423.
  
 Copyright (c) 1988,1990,1992,1993,1995,1998,2003,2009, Gaussian, Inc.
                  All Rights Reserved.
  
 This is part of the Gaussian(R) 09 program.  It is based on
 the Gaussian(R) 03 system (copyright 2003, Gaussian, Inc.),
 the Gaussian(R) 98 system (copyright 1998, Gaussian, Inc.),
 the Gaussian(R) 94 system (copyright 1995, Gaussian, Inc.),
 the Gaussian 92(TM) system (copyright 1992, Gaussian, Inc.),
 the Gaussian 90(TM) system (copyright 1990, Gaussian, Inc.),
 the Gaussian 88(TM) system (copyright 1988, Gaussian, Inc.),
 the Gaussian 86(TM) system (copyright 1986, Carnegie Mellon
 University), and the Gaussian 82(TM) system (copyright 1983,
 Carnegie Mellon University). Gaussian is a federally registered
 trademark of Gaussian, Inc.
  
 This software contains proprietary and confidential information,
 including trade secrets, belonging to Gaussian, Inc.
  
 This software is provided under written license and may be
 used, copied, transmitted, or stored only in accord with that
 written license.
  
 The following legend is applicable only to US Government
 contracts under FAR:
  
                    RESTRICTED RIGHTS LEGEND
  
 Use, reproduction and disclosure by the US Government is
 subject to restrictions as set forth in subparagraphs (a)
 and (c) of the Commercial Computer Software - Restricted
 Rights clause in FAR 52.227-19.
  
 Gaussian, Inc.
 340 Quinnipiac St., Bldg. 40, Wallingford CT 06492
  
  
 ---------------------------------------------------------------
 Warning -- This program may not be used in any manner that
 competes with the business of Gaussian, Inc. or will provide
 assistance to any competitor of Gaussian, Inc.  The licensee
 of this program is prohibited from giving any competitor of
 Gaussian, Inc. access to this program.  By using this program,
 the user acknowledges that Gaussian, Inc. is engaged in the
 business of creating and licensing software in the field of
 computational chemistry and represents and warrants to the
 licensee that it is not a competitor of Gaussian, Inc. and that
 it will not use this program in any manner prohibited above.
 ---------------------------------------------------------------
  

 Cite this work as:
 Gaussian 09, Revision A.02,
 M. J. Frisch, G. W. Trucks, H. B. Schlegel, G. E. Scuseria, 
 M. A. Robb, J. R. Cheeseman, G. Scalmani, V. Barone, B. Mennucci, 
 G. A. Petersson, H. Nakatsuji, M. Caricato, X. Li, H. P. Hratchian, 
 A. F. Izmaylov, J. Bloino, G. Zheng, J. L. Sonnenberg, M. Hada, 
 M. Ehara, K. Toyota, R. Fukuda, J. Hasegawa, M. Ishida, T. Nakajima, 
 Y. Honda, O. Kitao, H. Nakai, T. Vreven, J. A. Montgomery, Jr., 
 J. E. Peralta, F. Ogliaro, M. Bearpark, J. J. Heyd, E. Brothers, 
 K. N. Kudin, V. N. Staroverov, R. Kobayashi, J. Normand, 
 K. Raghavachari, A. Rendell, J. C. Burant, S. S. Iyengar, J. Tomasi, 
 M. Cossi, N. Rega, J. M. Millam, M. Klene, J. E. Knox, J. B. Cross, 
 V. Bakken, C. Adamo, J. Jaramillo, R. Gomperts, R. E. Stratmann, 
 O. Yazyev, A. J. Austin, R. Cammi, C. Pomelli, J. W. Ochterski, 
 R. L. Martin, K. Morokuma, V. G. Zakrzewski, G. A. Voth, 
 P. Salvador, J. J. Dannenberg, S. Dapprich, A. D. Daniels, 
 O. Farkas, J. B. Foresman, J. V. Ortiz, J. Cioslowski, 
 and D. J. Fox, Gaussian, Inc., Wallingford CT, 2009.
 
 ******************************************
 Gaussian 09:  EM64L-G09RevA.02 11-Jun-2009
                29-Nov-2020 
 ******************************************
 %nprocshared=16
 Will use up to   16 processors via shared memory.
 %mem=50000MB
 %chk=antiferro.chk
 --------------------------------------------------------------
 # stable=opt upbe1pbe/gen geom=allcheck pseudo=read guess=read
 --------------------------------------------------------------
 1/29=7,38=1/1;
 2/12=2,40=1/2;
 3/5=7,11=2,14=-4,16=1,17=8,25=1,30=1,74=-13,116=2/1,2,3;
 4/5=1/1;
 5/5=2,38=6/2;
 6/7=2,8=2,9=2,10=2,28=1/1;
 8/6=1,10=90,11=11/1;
 9/8=-3,42=1,46=1/14;
 5/5=2,8=3,17=40,38=6/8(-2);
 6/7=2,8=2,9=2,10=2,28=1/1;
 99/5=1,9=1/99;
 ------
 JAVYEK
 ------
 Z-Matrix taken from the checkpoint file:
 antiferro.chk
 Charge =  0 Multiplicity = 1
 Mn,0,-1.357267,0.000002,0.
 Mn,0,1.357267,-0.000002,0.
 O,0,0.000002,1.193234,0.
 O,0,-2.683328,-1.372184,-0.300979
 O,0,-3.903425,-2.39661,-1.895904
 O,0,-0.000002,-1.193234,0.
 O,0,-2.683325,1.372191,0.300978
 O,0,2.683325,-1.372191,0.300978
 O,0,2.683328,1.372184,-0.300979
 O,0,-3.903405,2.396633,1.895905
 O,0,3.903405,-2.396633,1.895905
 O,0,3.903425,2.39661,-1.895904
 N,0,-1.646571,0.291441,-1.963043
 N,0,-1.646572,-0.291435,1.963042
 N,0,1.646572,0.291435,1.963042
 N,0,1.646571,-0.291441,-1.963043
 C,0,-1.125068,1.286241,-2.685326
 C,0,-1.483837,1.452879,-4.016274
 C,0,-2.399786,0.570815,-4.587954
 C,0,-2.947316,-0.444148,-3.811365
 C,0,-2.551495,-0.543983,-2.486683
 C,0,-3.12053,-1.550852,-1.513903
 C,0,-1.12507,-1.286235,2.685327
 C,0,-2.551491,0.543994,2.486683
 C,0,-3.12053,1.550858,1.5139
 C,0,1.12507,1.286235,2.685327
 C,0,2.551491,-0.543994,2.486683
 C,0,1.125068,-1.286241,-2.685326
 C,0,2.551495,0.543983,-2.486683
 C,0,3.12053,-1.550858,1.5139
 C,0,3.12053,1.550852,-1.513903
 C,0,-1.483836,-1.452869,4.016276
 C,0,-2.94731,0.444163,3.811365
 C,0,1.483836,1.452869,4.016276
 C,0,2.94731,-0.444163,3.811365
 C,0,1.483837,-1.452879,-4.016274
 C,0,2.947316,0.444148,-3.811365
 C,0,-2.399781,-0.5708,4.587956
 C,0,2.399781,0.5708,4.587956
 C,0,2.399786,-0.570815,-4.587954
 H,0,-0.427156,1.930146,-2.159159
 H,0,-1.053571,2.268209,-4.587267
 H,0,-2.693156,0.686118,-5.627322
 H,0,-3.680707,-1.153065,-4.180184
 H,0,-0.427161,-1.930143,2.15916
 H,0,0.427161,1.930143,2.15916
 H,0,0.427156,-1.930146,-2.159159
 H,0,-1.053572,-2.268198,4.58727
 H,0,-3.680699,1.153082,4.180185
 H,0,1.053572,2.268198,4.58727
 H,0,3.680699,-1.153082,4.180185
 H,0,1.053571,-2.268209,-4.587267
 H,0,3.680707,1.153065,-4.180184
 H,0,-2.69315,-0.6861,5.627325
 H,0,2.69315,0.6861,5.627325
 H,0,2.693156,-0.686118,-5.627322
 Recover connectivity data from disk.
 Stoichiometry    C24H16Mn2N4O10
 Framework group  C2[X(C24H16Mn2N4O10)]
 Deg. of freedom    82
 Full point group                 C2      NOp   2
 Largest Abelian subgroup         C2      NOp   2
 Largest concise Abelian subgroup C2      NOp   2
                         Standard orientation:                         
 ---------------------------------------------------------------------
 Center     Atomic      Atomic             Coordinates (Angstroms)
 Number     Number       Type             X           Y           Z
 ---------------------------------------------------------------------
      1         25           0       -1.357267   -0.000000   -0.000000
      2         25           0        1.357267   -0.000000   -0.000000
      3          8           0        0.000000    1.193234   -0.000000
      4          8           0       -2.683326   -1.372188   -0.300979
      5          8           0       -3.903421   -2.396617   -1.895904
      6          8           0       -0.000000   -1.193234   -0.000000
      7          8           0       -2.683327    1.372187    0.300978
      8          8           0        2.683327   -1.372187    0.300978
      9          8           0        2.683326    1.372188   -0.300979
     10          8           0       -3.903409    2.396626    1.895905
     11          8           0        3.903409   -2.396626    1.895905
     12          8           0        3.903421    2.396617   -1.895904
     13          7           0       -1.646571    0.291438   -1.963043
     14          7           0       -1.646572   -0.291438    1.963042
     15          7           0        1.646572    0.291438    1.963042
     16          7           0        1.646571   -0.291438   -1.963043
     17          6           0       -1.125070    1.286239   -2.685326
     18          6           0       -1.483839    1.452877   -4.016274
     19          6           0       -2.399787    0.570811   -4.587954
     20          6           0       -2.947315   -0.444153   -3.811365
     21          6           0       -2.551494   -0.543987   -2.486683
     22          6           0       -3.120527   -1.550857   -1.513903
     23          6           0       -1.125068   -1.286237    2.685327
     24          6           0       -2.551492    0.543990    2.486683
     25          6           0       -3.120533    1.550853    1.513900
     26          6           0        1.125068    1.286237    2.685327
     27          6           0        2.551492   -0.543990    2.486683
     28          6           0        1.125070   -1.286239   -2.685326
     29          6           0        2.551494    0.543987   -2.486683
     30          6           0        3.120533   -1.550853    1.513900
     31          6           0        3.120527    1.550857   -1.513903
     32          6           0       -1.483834   -1.452871    4.016276
     33          6           0       -2.947311    0.444158    3.811365
     34          6           0        1.483834    1.452871    4.016276
     35          6           0        2.947311   -0.444158    3.811365
     36          6           0        1.483839   -1.452877   -4.016274
     37          6           0        2.947315    0.444153   -3.811365
     38          6           0       -2.399780   -0.570804    4.587956
     39          6           0        2.399780    0.570804    4.587956
     40          6           0        2.399787   -0.570811   -4.587954
     41          1           0       -0.427159    1.930145   -2.159159
     42          1           0       -1.053575    2.268207   -4.587267
     43          1           0       -2.693157    0.686113   -5.627322
     44          1           0       -3.680705   -1.153071   -4.180184
     45          1           0       -0.427158   -1.930144    2.159160
     46          1           0        0.427158    1.930144    2.159160
     47          1           0        0.427159   -1.930145   -2.159159
     48          1           0       -1.053568   -2.268200    4.587270
     49          1           0       -3.680701    1.153076    4.180185
     50          1           0        1.053568    2.268200    4.587270
     51          1           0        3.680701   -1.153076    4.180185
     52          1           0        1.053575   -2.268207   -4.587267
     53          1           0        3.680705    1.153071   -4.180184
     54          1           0       -2.693149   -0.686105    5.627325
     55          1           0        2.693149    0.686105    5.627325
     56          1           0        2.693157   -0.686113   -5.627322
 ---------------------------------------------------------------------
 Rotational constants (GHZ):      0.1139439      0.1030343      0.0673232
 General basis read from cards:  (5D, 7F)
 ======================================================================================================
                                       Pseudopotential Parameters
 ======================================================================================================
  Center     Atomic      Valence      Angular      Power
  Number     Number     Electrons     Momentum     of R      Exponent        Coefficient   SO-Coeffient
 ======================================================================================================
    1         25           15
                                      F and up 
                                                     2        1.0000000        0.00000000    0.00000000
                                      S - F
                                                     2       18.5200000      226.43090200    0.00000000
                                                     2        8.3730000       30.35907200    0.00000000
                                      P - F
                                                     2       18.9200000      142.15470500    0.00000000
                                                     2        8.0170000       21.53650900    0.00000000
                                      D - F
                                                     2       22.7200000      -22.56811900    0.00000000
                                                     2        7.6400000       -1.20581000    0.00000000
    2         25           15
                                      F and up 
                                                     2        1.0000000        0.00000000    0.00000000
                                      S - F
                                                     2       18.5200000      226.43090200    0.00000000
                                                     2        8.3730000       30.35907200    0.00000000
                                      P - F
                                                     2       18.9200000      142.15470500    0.00000000
                                                     2        8.0170000       21.53650900    0.00000000
                                      D - F
                                                     2       22.7200000      -22.56811900    0.00000000
                                                     2        7.6400000       -1.20581000    0.00000000
    3          8
                                   No pseudopotential on this center.
    4          8
                                   No pseudopotential on this center.
    5          8
                                   No pseudopotential on this center.
    6          8
                                   No pseudopotential on this center.
    7          8
                                   No pseudopotential on this center.
    8          8
                                   No pseudopotential on this center.
    9          8
                                   No pseudopotential on this center.
   10          8
                                   No pseudopotential on this center.
   11          8
                                   No pseudopotential on this center.
   12          8
                                   No pseudopotential on this center.
   13          7
                                   No pseudopotential on this center.
   14          7
                                   No pseudopotential on this center.
   15          7
                                   No pseudopotential on this center.
   16          7
                                   No pseudopotential on this center.
   17          6
                                   No pseudopotential on this center.
   18          6
                                   No pseudopotential on this center.
   19          6
                                   No pseudopotential on this center.
   20          6
                                   No pseudopotential on this center.
   21          6
                                   No pseudopotential on this center.
   22          6
                                   No pseudopotential on this center.
   23          6
                                   No pseudopotential on this center.
   24          6
                                   No pseudopotential on this center.
   25          6
                                   No pseudopotential on this center.
   26          6
                                   No pseudopotential on this center.
   27          6
                                   No pseudopotential on this center.
   28          6
                                   No pseudopotential on this center.
   29          6
                                   No pseudopotential on this center.
   30          6
                                   No pseudopotential on this center.
   31          6
                                   No pseudopotential on this center.
   32          6
                                   No pseudopotential on this center.
   33          6
                                   No pseudopotential on this center.
   34          6
                                   No pseudopotential on this center.
   35          6
                                   No pseudopotential on this center.
   36          6
                                   No pseudopotential on this center.
   37          6
                                   No pseudopotential on this center.
   38          6
                                   No pseudopotential on this center.
   39          6
                                   No pseudopotential on this center.
   40          6
                                   No pseudopotential on this center.
   41          1
                                   No pseudopotential on this center.
   42          1
                                   No pseudopotential on this center.
   43          1
                                   No pseudopotential on this center.
   44          1
                                   No pseudopotential on this center.
   45          1
                                   No pseudopotential on this center.
   46          1
                                   No pseudopotential on this center.
   47          1
                                   No pseudopotential on this center.
   48          1
                                   No pseudopotential on this center.
   49          1
                                   No pseudopotential on this center.
   50          1
                                   No pseudopotential on this center.
   51          1
                                   No pseudopotential on this center.
   52          1
                                   No pseudopotential on this center.
   53          1
                                   No pseudopotential on this center.
   54          1
                                   No pseudopotential on this center.
   55          1
                                   No pseudopotential on this center.
   56          1
                                   No pseudopotential on this center.
 ======================================================================================================
 There are   349 symmetry adapted basis functions of A   symmetry.
 There are   349 symmetry adapted basis functions of B   symmetry.
 Integral buffers will be    131072 words long.
 Raffenetti 2 integral format.
 Two-electron integral symmetry is turned on.
   698 basis functions,  1326 primitive gaussians,   748 cartesian basis functions
   149 alpha electrons      149 beta electrons
       nuclear repulsion energy      5586.6818583585 Hartrees.
 NAtoms=   56 NActive=   56 NUniq=   28 SFac= 3.00D+00 NAtFMM=   80 NAOKFM=F Big=F
 One-electron integrals computed using PRISM.
   2 Symmetry operations used in ECPInt.
 ECPInt:  NShTT=   26565 NPrTT=  147907 LenC2=   21062 LenP2D=   62898.
 LDataN:  DoStor=T MaxTD1= 6 Len=  172
 NBasis=   698 RedAO= T  NBF=   349   349
 NBsUse=   698 1.00D-06 NBFU=   349   349
 Initial guess read from the checkpoint file:  antiferro.chk
 B after Tr=    -0.000000   -0.000000   -0.000000
         Rot=    0.000000   -0.000000   -0.000000    1.000000 Ang= 180.00 deg.
 Initial guess orbital symmetries:
 Alpha Orbitals:
       Occupied  (B) (A) (B) (A) (B) (A) (B) (A) (B) (A) (A) (A)
                 (B) (B) (B) (B) (A) (A) (B) (A) (B) (A) (A) (A)
                 (B) (B) (B) (B) (A) (A) (B) (B) (A) (A) (A) (B)
                 (A) (B) (B) (B) (B) (B) (A) (B) (B) (B) (B) (B)
                 (B) (B) (A) (A) (B) (B) (B) (B) (B) (A) (B) (B)
                 (B) (B) (B) (B) (B) (B) (A) (B) (A) (B) (B) (B)
                 (A) (B) (B) (B) (B) (A) (A) (B) (B) (B) (B) (B)
                 (B) (B) (A) (B) (A) (B) (B) (B) (B) (B) (B) (B)
                 (B) (B) (B) (B) (A) (B) (B) (B) (A) (A) (B) (B)
                 (B) (B) (B) (B) (B) (B) (A) (B) (A) (A) (B) (B)
                 (B) (B) (A) (B) (B) (A) (A) (B) (B) (B) (B) (B)
                 (B) (B) (B) (B) (B) (B) (?A) (?B) (?B) (?B) (?A)
                 (?B) (?B) (?B) (B) (B) (B)
       Virtual   (B) (B) (B) (B) (B) (B) (B) (B) (B) (B) (B) (B)
                 (B) (B) (B) (B) (B) (B) (B) (B) (B) (B) (B) (B)
                 (B) (A) (B) (B) (B) (B) (B) (B) (B) (B) (B) (B)
                 (B) (B) (B) (B) (B) (B) (B) (B) (B) (B) (B) (B)
                 (B) (B) (B) (B) (B) (B) (B) (B) (B) (B) (B) (B)
                 (B) (B) (B) (B) (B) (B) (B) (B) (B) (B) (B) (B)
                 (B) (B) (B) (B) (B) (B) (B) (B) (B) (B) (B) (B)
                 (B) (B) (B) (B) (B) (B) (B) (B) (B) (B) (B) (B)
                 (B) (B) (B) (B) (B) (B) (B) (B) (B) (B) (B) (B)
                 (B) (B) (B) (B) (B) (B) (B) (B) (B) (A) (B) (B)
                 (B) (B) (B) (B) (B) (B) (B) (B) (B) (B) (B) (B)
                 (B) (B) (B) (B) (B) (A) (B) (B) (B) (B) (B) (B)
                 (B) (B) (B) (B) (B) (B) (B) (B) (A) (B) (B) (B)
                 (B) (B) (B) (B) (B) (A) (B) (B) (B) (B) (B) (B)
                 (B) (B) (B) (A) (B) (B) (B) (B) (A) (B) (B) (B)
                 (B) (B) (B) (B) (B) (B) (B) (B) (B) (A) (B) (A)
                 (B) (B) (B) (B) (B) (B) (B) (B) (B) (B) (B) (B)
                 (A) (B) (B) (B) (B) (B) (B) (B) (B) (B) (B) (B)
                 (B) (B) (B) (B) (B) (B) (B) (B) (B) (B) (B) (B)
                 (B) (B) (B) (A) (A) (B) (B) (B) (B) (B) (B) (B)
                 (B) (B) (B) (B) (B) (B) (B) (B) (B) (B) (B) (B)
                 (B) (B) (B) (B) (B) (B) (B) (B) (B) (B) (B) (B)
                 (B) (B) (B) (B) (B) (B) (B) (B) (A) (B) (B) (B)
                 (B) (B) (B) (B) (B) (A) (B) (B) (B) (B) (B) (B)
                 (B) (B) (B) (B) (B) (B) (B) (B) (B) (B) (B) (B)
                 (B) (B) (B) (B) (B) (B) (B) (B) (B) (B) (B) (B)
                 (B) (B) (B) (B) (B) (B) (B) (B) (B) (B) (B) (B)
                 (B) (B) (B) (B) (B) (B) (B) (B) (B) (B) (B) (B)
                 (B) (B) (B) (B) (B) (B) (B) (B) (B) (B) (B) (B)
                 (B) (B) (B) (B) (B) (B) (B) (B) (B) (B) (B) (B)
                 (B) (B) (B) (B) (B) (B) (B) (B) (B) (B) (B) (B)
                 (B) (B) (B) (B) (B) (B) (B) (B) (B) (B) (B) (B)
                 (B) (B) (B) (B) (B) (B) (B) (B) (B) (B) (B) (B)
                 (B) (B) (B) (B) (B) (B) (B) (B) (B) (B) (B) (B)
                 (B) (B) (B) (B) (B) (B) (B) (B) (B) (B) (B) (B)
                 (B) (B) (B) (B) (B) (B) (B) (B) (B) (B) (B) (B)
                 (B) (B) (B) (B) (B) (B) (B) (B) (B) (B) (B) (B)
                 (B) (B) (B) (B) (B) (B) (B) (B) (B) (B) (B) (B)
                 (B) (B) (B) (B) (B) (B) (B) (B) (B) (B) (B) (B)
                 (B) (B) (B) (B) (B) (B) (B) (B) (B) (B) (B) (B)
                 (B) (B) (B) (B) (B) (B) (B) (B) (B) (B) (B) (B)
                 (B) (B) (B) (B) (B) (B) (B) (B) (B) (B) (B) (B)
                 (B) (B) (B) (B) (B) (B) (B) (B) (B) (B) (B) (B)
                 (B) (B) (B) (B) (B) (B) (B) (B) (B) (B) (B) (B)
                 (B) (B) (B) (B) (B) (B) (B) (B) (B) (B) (B) (B)
                 (B) (B) (B) (B) (B) (B) (B) (B) (B)
 Beta  Orbitals:
       Occupied  (B) (A) (B) (A) (B) (A) (B) (A) (B) (A) (A) (A)
                 (B) (B) (B) (B) (A) (A) (B) (A) (B) (A) (A) (A)
                 (B) (B) (B) (B) (A) (A) (B) (B) (A) (A) (A) (B)
                 (A) (B) (A) (B) (B) (B) (A) (B) (B) (B) (B) (B)
                 (B) (B) (A) (A) (B) (B) (B) (B) (B) (B) (A) (B)
                 (A) (B) (B) (B) (B) (B) (B) (B) (A) (B) (B) (B)
                 (A) (A) (B) (B) (B) (A) (B) (B) (B) (B) (B) (B)
                 (B) (A) (B) (B) (B) (B) (B) (B) (B) (B) (B) (B)
                 (B) (B) (B) (B) (A) (B) (B) (B) (B) (A) (B) (B)
                 (B) (B) (B) (B) (B) (B) (B) (B) (A) (B) (B) (B)
                 (B) (B) (A) (B) (B) (B) (A) (B) (B) (B) (B) (B)
                 (B) (B) (B) (B) (B) (B) (?A) (?B) (?B) (?B) (?A)
                 (?B) (?B) (?B) (B) (B) (B)
       Virtual   (B) (B) (B) (B) (B) (B) (B) (B) (B) (B) (B) (B)
                 (B) (B) (B) (B) (B) (B) (B) (B) (B) (B) (B) (B)
                 (B) (B) (B) (B) (B) (B) (B) (B) (B) (B) (B) (B)
                 (B) (B) (B) (B) (B) (B) (B) (B) (B) (B) (B) (B)
                 (B) (B) (B) (B) (B) (B) (B) (B) (B) (B) (B) (B)
                 (B) (B) (B) (B) (B) (A) (B) (B) (B) (B) (B) (B)
                 (B) (B) (B) (B) (B) (B) (B) (B) (B) (B) (B) (B)
                 (B) (B) (B) (B) (B) (B) (B) (B) (B) (B) (B) (B)
                 (B) (B) (B) (B) (B) (B) (B) (B) (B) (B) (B) (B)
                 (B) (B) (B) (B) (B) (B) (B) (B) (B) (B) (B) (B)
                 (B) (B) (B) (B) (B) (B) (B) (B) (B) (B) (B) (B)
                 (B) (B) (B) (B) (B) (B) (B) (B) (B) (B) (B) (B)
                 (B) (B) (B) (B) (A) (B) (B) (B) (B) (B) (B) (B)
                 (B) (B) (B) (B) (B) (B) (B) (B) (A) (B) (B) (B)
                 (A) (B) (B) (B) (B) (B) (B) (B) (B) (B) (B) (B)
                 (B) (B) (B) (B) (B) (B) (B) (B) (B) (B) (A) (A)
                 (B) (B) (B) (B) (B) (B) (A) (B) (B) (B) (B) (B)
                 (B) (B) (B) (B) (B) (B) (B) (B) (B) (B) (B) (B)
                 (B) (B) (B) (B) (B) (B) (B) (B) (A) (B) (B) (B)
                 (B) (B) (B) (B) (A) (B) (B) (B) (B) (B) (B) (B)
                 (B) (B) (B) (B) (B) (B) (B) (B) (B) (B) (B) (B)
                 (B) (B) (B) (A) (B) (B) (B) (B) (B) (B) (B) (B)
                 (B) (B) (B) (B) (B) (B) (B) (B) (B) (B) (B) (B)
                 (B) (B) (B) (B) (B) (B) (B) (B) (B) (B) (B) (B)
                 (B) (B) (B) (B) (B) (B) (B) (B) (B) (B) (B) (B)
                 (B) (B) (B) (B) (B) (B) (B) (B) (B) (B) (B) (B)
                 (B) (B) (B) (B) (B) (B) (B) (B) (B) (B) (B) (B)
                 (B) (B) (B) (B) (B) (B) (B) (B) (B) (B) (B) (B)
                 (B) (B) (B) (B) (B) (B) (B) (A) (B) (B) (B) (B)
                 (B) (B) (B) (B) (B) (B) (B) (B) (B) (B) (B) (B)
                 (B) (B) (B) (B) (B) (B) (B) (B) (B) (B) (B) (B)
                 (B) (A) (B) (B) (A) (B) (B) (B) (B) (B) (B) (B)
                 (A) (B) (B) (B) (B) (B) (B) (B) (B) (A) (B) (B)
                 (B) (B) (B) (B) (B) (B) (B) (B) (B) (B) (B) (B)
                 (B) (B) (B) (B) (B) (B) (B) (B) (B) (B) (B) (B)
                 (B) (B) (B) (B) (B) (B) (B) (B) (B) (B) (B) (B)
                 (B) (B) (B) (B) (B) (B) (B) (B) (B) (B) (B) (B)
                 (B) (B) (B) (B) (B) (B) (B) (B) (B) (B) (B) (B)
                 (B) (B) (B) (B) (B) (B) (B) (B) (B) (B) (B) (B)
                 (B) (B) (B) (B) (B) (B) (B) (B) (B) (B) (A) (B)
                 (B) (B) (B) (B) (B) (B) (A) (B) (B) (B) (B) (B)
                 (B) (B) (B) (B) (B) (B) (B) (B) (B) (B) (B) (B)
                 (B) (B) (B) (B) (B) (B) (B) (B) (B) (B) (B) (B)
                 (B) (B) (B) (B) (B) (B) (B) (B) (B) (B) (B) (B)
                 (B) (B) (B) (B) (B) (B) (B) (B) (B) (B) (B) (B)
                 (B) (B) (B) (B) (B) (B) (B) (B) (B)
 Initial guess <Sx>= 0.0000 <Sy>= 0.0000 <Sz>= 0.0000 <S**2>= 2.9998 S= 1.3027
 Requested convergence on RMS density matrix=1.00D-08 within 128 cycles.
 Requested convergence on MAX density matrix=1.00D-06.
 Requested convergence on             energy=1.00D-06.
 No special actions if energy rises.
 An orbital has undefined symmetry, so N**3 symmetry is turned off.
 Density matrix breaks symmetry, PCut= 1.00D-04
 Density matrix has no symmetry -- integrals replicated.
 Density matrix breaks symmetry, PCut= 1.00D-04
 Density matrix has no symmetry -- integrals replicated.
 Density matrix breaks symmetry, PCut= 1.00D-04
 Density matrix has no symmetry -- integrals replicated.
 EnCoef did     5 forward-backward iterations
 Density matrix breaks symmetry, PCut= 1.00D-04
 Density matrix has no symmetry -- integrals replicated.
 EnCoef did   100 forward-backward iterations
 Density matrix breaks symmetry, PCut= 1.00D-04
 Density matrix has no symmetry -- integrals replicated.
 Density matrix breaks symmetry, PCut= 1.00D-04
 Density matrix has no symmetry -- integrals replicated.
 Density matrix breaks symmetry, PCut= 1.00D-04
 Density matrix has no symmetry -- integrals replicated.
 Density matrix breaks symmetry, PCut= 1.00D-04
 Density matrix has no symmetry -- integrals replicated.
 Density matrix breaks symmetry, PCut= 1.00D-04
 Density matrix has no symmetry -- integrals replicated.
 Density matrix breaks symmetry, PCut= 1.00D-04
 Density matrix has no symmetry -- integrals replicated.
 Density matrix breaks symmetry, PCut= 1.00D-04
 Density matrix has no symmetry -- integrals replicated.
 Density matrix breaks symmetry, PCut= 1.00D-04
 Density matrix has no symmetry -- integrals replicated.
 Density matrix breaks symmetry, PCut= 1.00D-04
 Density matrix has no symmetry -- integrals replicated.
 Density matrix breaks symmetry, PCut= 1.00D-04
 Density matrix has no symmetry -- integrals replicated.
 Density matrix breaks symmetry, PCut= 1.00D-04
 Density matrix has no symmetry -- integrals replicated.
 Density matrix breaks symmetry, PCut= 1.00D-04
 Density matrix has no symmetry -- integrals replicated.
 Density matrix breaks symmetry, PCut= 1.00D-04
 Density matrix has no symmetry -- integrals replicated.
 Density matrix breaks symmetry, PCut= 1.00D-04
 Density matrix has no symmetry -- integrals replicated.
 Density matrix breaks symmetry, PCut= 1.00D-04
 Density matrix has no symmetry -- integrals replicated.
 Density matrix breaks symmetry, PCut= 1.00D-04
 Density matrix has no symmetry -- integrals replicated.
 Restarting incremental Fock formation.
 Density matrix breaks symmetry, PCut= 1.00D-04
 Density matrix has no symmetry -- integrals replicated.
 Density matrix breaks symmetry, PCut= 1.00D-04
 Density matrix has no symmetry -- integrals replicated.
 Density matrix breaks symmetry, PCut= 1.00D-04
 Density matrix has no symmetry -- integrals replicated.
 Density matrix breaks symmetry, PCut= 1.00D-04
 Density matrix has no symmetry -- integrals replicated.
 Density matrix breaks symmetry, PCut= 1.00D-04
 Density matrix has no symmetry -- integrals replicated.
 Density matrix breaks symmetry, PCut= 1.00D-04
 Density matrix has no symmetry -- integrals replicated.
 Density matrix breaks symmetry, PCut= 1.00D-04
 Density matrix has no symmetry -- integrals replicated.
 Density matrix breaks symmetry, PCut= 1.00D-04
 Density matrix has no symmetry -- integrals replicated.
 Density matrix breaks symmetry, PCut= 1.00D-04
 Density matrix has no symmetry -- integrals replicated.
 Density matrix breaks symmetry, PCut= 1.00D-04
 Density matrix has no symmetry -- integrals replicated.
 SCF Done:  E(UPBE1PBE) =  -2102.25841963     A.U. after   29 cycles
             Convg  =    0.4166D-08             -V/T =  2.0538
 <Sx>= 0.0000 <Sy>= 0.0000 <Sz>= 0.0000 <S**2>= 3.0894 S= 1.3274
 <L.S>=  0.00000000000    
 Annihilation of the first spin contaminant:
 S**2 before annihilation     3.0894,   after     9.3376
 DiagDN has N=   698 LTot=  2126 but NE2=     3 cannot use DSYEVD.

 **********************************************************************

            Population analysis using the SCF density.

 **********************************************************************

 Orbital symmetries:
 Alpha Orbitals:
       Occupied  (B) (?A) (B) (?A) (B) (?A) (?B) (?B) (?B) (?B)
                 (?C) (?C) (?C) (?C) (?B) (?B) (?B) (?B) (?B) (?B)
                 (?B) (?B) (?B) (?B) (?B) (?B) (?D) (?D) (?D) (?D)
                 (?B) (?B) (?B) (?B) (?B) (?B) (?B) (?B) (?B) (?B)
                 (?E) (?F) (?E) (?E) (?F) (?E) (?B) (?B) (?B) (?B)
                 (?G) (?B) (?G) (?B) (?G) (?G) (?B) (?B) (?F) (?H)
                 (?B) (?B) (?B) (?B) (?B) (?B) (?B) (?B) (?H) (?H)
                 (?B) (?B) (?B) (?B) (?B) (?B) (?H) (?H) (?H) (?H)
                 (?H) (?H) (?H) (?H) (?H) (?H) (?H) (?H) (?H) (?H)
                 (?H) (?H) (?H) (?H) (?H) (?H) (?H) (?H) (?H) (?H)
                 (?H) (?H) (?H) (?H) (?H) (?H) (?H) (?H) (?H) (?H)
                 (?H) (?H) (?H) (?H) (?H) (?H) (?H) (?H) (?H) (?H)
                 (?H) (?H) (?H) (?H) (?H) (?H) (?H) (?H) (?H) (?H)
                 (?H) (?H) (?H) (?H) (?H) (?H) (?H) (?H) (?H) (?H)
                 (?H) (?H) (?H) (?H) (?H) (?H) (?H) (?H) (?H)
       Virtual   (?H) (?H) (?H) (?H) (?H) (?H) (?H) (?H) (?H) (?H)
                 (?H) (?H) (?H) (?H) (?H) (?H) (?H) (?H) (?H) (?H)
                 (?H) (?H) (?H) (?H) (?H) (?H) (?H) (?H) (?H) (?H)
                 (?H) (?H) (?H) (?H) (?H) (?H) (?H) (?H) (?H) (?H)
                 (?H) (?H) (?H) (?H) (?H) (?H) (?H) (?H) (B) (?H)
                 (?H) (?H) (?H) (?H) (?H) (?H) (?H) (?H) (?H) (?H)
                 (?H) (?H) (?H) (?H) (?H) (?H) (?H) (?H) (?H) (?H)
                 (?H) (?H) (?H) (?H) (?H) (?H) (?H) (?H) (?H) (?H)
                 (?H) (?H) (?H) (?H) (?H) (?H) (?H) (?H) (?H) (?H)
                 (?H) (?H) (?H) (?H) (?H) (?H) (?H) (?H) (?H) (?H)
                 (?H) (?H) (?H) (?H) (?H) (?H) (?H) (?H) (?H) (?H)
                 (?H) (?H) (?H) (?H) (?H) (?H) (?H) (?H) (?H) (?H)
                 (?H) (?H) (?H) (?H) (?H) (?H) (?H) (?H) (?H) (?H)
                 (?H) (?H) (?H) (?H) (?H) (?H) (?H) (?H) (?H) (?H)
                 (?H) (?H) (?H) (?H) (?H) (?H) (?H) (?H) (?H) (?H)
                 (?H) (?H) (?H) (?H) (?H) (?H) (?H) (?H) (?H) (?H)
                 (?H) (?H) (?H) (?H) (?H) (?H) (?H) (?H) (?H) (?H)
                 (?H) (?H) (?H) (?H) (?H) (?H) (?H) (?H) (?H) (?H)
                 (?H) (?H) (?H) (?H) (?H) (?H) (?H) (?H) (?H) (?H)
                 (?H) (?H) (?H) (?H) (?H) (?H) (?H) (?H) (?H) (?H)
                 (?H) (?H) (?H) (?H) (?H) (?H) (?H) (?H) (?H) (?H)
                 (?H) (?H) (?H) (?H) (?H) (?H) (?H) (?H) (?H) (?H)
                 (?H) (?H) (?H) (?H) (?H) (?H) (?H) (?H) (?H) (?H)
                 (?H) (?H) (?H) (?H) (?H) (?H) (?H) (?H) (?H) (?H)
                 (?H) (?H) (?H) (?H) (?H) (?H) (?H) (?H) (?H) (?H)
                 (?H) (?H) (?H) (?H) (?H) (?H) (?H) (?H) (?H) (?H)
                 (?H) (?H) (?H) (?H) (?H) (?H) (?H) (?H) (?H) (?H)
                 (?H) (?H) (?H) (?H) (?H) (?H) (?H) (?H) (?H) (?H)
                 (?H) (?H) (?H) (?H) (?H) (?H) (?H) (?H) (?H) (?H)
                 (?H) (?H) (?H) (?H) (?H) (?H) (?H) (?H) (?H) (?H)
                 (?H) (?H) (?H) (?H) (?H) (?H) (?H) (?H) (?H) (?H)
                 (?H) (?H) (?H) (?H) (?H) (?H) (?H) (?H) (A) (?H)
                 (?H) (?H) (?H) (?H) (?H) (?H) (?H) (?H) (?H) (?H)
                 (?H) (?H) (?H) (A) (?H) (?H) (?H) (?H) (?H) (?H)
                 (?H) (?H) (?H) (?H) (?H) (?H) (?H) (?H) (?H) (?H)
                 (?H) (?H) (?H) (?H) (?H) (?H) (?H) (?H) (?H) (?H)
                 (?H) (?H) (?H) (?H) (?H) (?H) (?H) (?H) (?H) (?H)
                 (?H) (?H) (?H) (?H) (?H) (?H) (?H) (?H) (?H) (?H)
                 (?H) (?H) (?H) (?H) (?H) (?H) (?H) (?H) (?H) (?H)
                 (?H) (?H) (?H) (?H) (?H) (?H) (?H) (?H) (?H) (?H)
                 (?H) (?H) (?H) (?H) (?H) (?H) (A) (B) (?H) (?H)
                 (?H) (?H) (?H) (?H) (?H) (?H) (?H) (?H) (?H) (?H)
                 (?H) (?H) (?H) (?H) (?H) (?H) (?H) (?H) (?H) (?H)
                 (?H) (?H) (?H) (?H) (?H) (?H) (?H) (?H) (?H) (?H)
                 (?H) (?H) (?H) (?H) (?H) (?H) (?H) (?H) (?H) (?H)
                 (?H) (?H) (?H) (?H) (?H) (?H) (?H) (?H) (?H) (?H)
                 (?H) (?H) (?H) (?H) (?H) (?H) (?H) (?H) (?H) (?H)
                 (?H) (?H) (?H) (?H) (?H) (?H) (?H) (?H) (?H) (?H)
                 (?H) (?H) (?H) (?H) (?H) (?H) (?H) (?H) (?H) (?H)
                 (?H) (?H) (?H) (?H) (A) (?H) (?H) (?H) (?B) (?B)
                 (?H) (?H) (?B) (?H) (?B) (?H) (?H) (?B) (?H) (?B)
                 (?H) (?B) (?B) (?H) (?H) (?B) (?H) (?B) (?H) (A)
                 (?H) (B) (?H) (?B) (?B) (B) (A) (?I) (?I) (?J)
                 (?J) (?I) (?I) (?I) (?J) (?J) (?J) (?I) (?I) (?J)
                 (?I) (?K) (?K) (?B) (?K) (?K) (?B) (?B) (?B)
 Beta  Orbitals:
       Occupied  (B) (?A) (B) (?A) (B) (?A) (?B) (?B) (?B) (?B)
                 (?C) (?C) (?C) (?C) (?B) (?B) (?B) (?B) (?B) (?B)
                 (?B) (?B) (?B) (?B) (?B) (?B) (?D) (?D) (?D) (?D)
                 (?B) (?B) (?B) (?B) (?B) (?B) (?B) (?B) (?B) (?B)
                 (?E) (?F) (?E) (?E) (?F) (?E) (?B) (?B) (?B) (?B)
                 (?G) (?B) (?G) (?B) (?G) (?G) (?B) (?B) (?F) (?H)
                 (?B) (?B) (?B) (?B) (?B) (?B) (?B) (?B) (?H) (?H)
                 (?B) (?B) (?B) (?B) (?B) (?B) (?H) (?H) (?H) (?H)
                 (?H) (?H) (?H) (?H) (?H) (?H) (?H) (?H) (?H) (?H)
                 (?H) (?H) (?H) (?H) (?H) (?H) (?H) (?H) (?H) (?H)
                 (?H) (?H) (?H) (?H) (?H) (?H) (?H) (?H) (?H) (?H)
                 (?H) (?H) (?H) (?H) (?H) (?H) (?H) (?H) (?H) (?H)
                 (?H) (?H) (?H) (?H) (?H) (?H) (?H) (?H) (?H) (?H)
                 (?H) (?H) (?H) (?H) (?H) (?H) (?H) (?H) (?H) (?H)
                 (?H) (?H) (?H) (?H) (?H) (?H) (?H) (?H) (?H)
       Virtual   (?H) (?H) (?H) (?H) (?H) (?H) (?H) (?H) (?H) (?H)
                 (?H) (?H) (?H) (?H) (?H) (?H) (?H) (?H) (?H) (?H)
                 (?H) (?H) (?H) (?H) (?H) (?H) (?H) (?H) (?H) (?H)
                 (?H) (?H) (?H) (?H) (?H) (?H) (?H) (?H) (?H) (?H)
                 (?H) (?H) (?H) (?H) (?H) (?H) (?H) (?H) (B) (?H)
                 (?H) (?H) (?H) (?H) (?H) (?H) (?H) (?H) (?H) (?H)
                 (?H) (?H) (?H) (?H) (?H) (?H) (?H) (?H) (?H) (?H)
                 (?H) (?H) (?H) (?H) (?H) (?H) (?H) (?H) (?H) (?H)
                 (?H) (?H) (?H) (?H) (?H) (?H) (?H) (?H) (?H) (?H)
                 (?H) (?H) (?H) (?H) (?H) (?H) (?H) (?H) (?H) (?H)
                 (?H) (?H) (?H) (?H) (?H) (?H) (?H) (?H) (?H) (?H)
                 (?H) (?H) (?H) (?H) (?H) (?H) (?H) (?H) (?H) (?H)
                 (?H) (?H) (?H) (?H) (?H) (?H) (?H) (?H) (?H) (?H)
                 (?H) (?H) (?H) (?H) (?H) (?H) (?H) (?H) (?H) (?H)
                 (?H) (?H) (?H) (?H) (?H) (?H) (?H) (?H) (?H) (?H)
                 (?H) (?H) (?H) (?H) (?H) (?H) (?H) (?H) (?H) (?H)
                 (?H) (?H) (?H) (?H) (?H) (?H) (?H) (?H) (?H) (?H)
                 (?H) (?H) (?H) (?H) (?H) (?H) (?H) (?H) (?H) (?H)
                 (?H) (?H) (?H) (?H) (?H) (?H) (?H) (?H) (?H) (?H)
                 (?H) (?H) (?H) (?H) (?H) (?H) (?H) (?H) (?H) (?H)
                 (?H) (?H) (?H) (?H) (?H) (?H) (?H) (?H) (?H) (?H)
                 (?H) (?H) (?H) (?H) (?H) (?H) (?H) (?H) (?H) (?H)
                 (?H) (?H) (?H) (?H) (?H) (?H) (?H) (?H) (?H) (?H)
                 (?H) (?H) (?H) (?H) (?H) (?H) (?H) (?H) (?H) (?H)
                 (?H) (?H) (?H) (?H) (?H) (?H) (?H) (?H) (?H) (?H)
                 (?H) (?H) (?H) (?H) (?H) (?H) (?H) (?H) (?H) (?H)
                 (?H) (?H) (?H) (?H) (?H) (?H) (?H) (?H) (?H) (?H)
                 (?H) (?H) (?H) (?H) (?H) (?H) (?H) (?H) (?H) (?H)
                 (?H) (?H) (?H) (?H) (?H) (?H) (?H) (?H) (?H) (?H)
                 (?H) (?H) (?H) (?H) (?H) (?H) (?H) (?H) (?H) (?H)
                 (?H) (?H) (?H) (?H) (?H) (?H) (?H) (?H) (?H) (?H)
                 (?H) (?H) (?H) (?H) (?H) (?H) (?H) (?H) (A) (?H)
                 (?H) (?H) (?H) (?H) (?H) (?H) (?H) (?H) (?H) (?H)
                 (?H) (?H) (?H) (A) (?H) (?H) (?H) (?H) (?H) (?H)
                 (?H) (?H) (?H) (?H) (?H) (?H) (?H) (?H) (?H) (?H)
                 (?H) (?H) (?H) (?H) (?H) (?H) (?H) (?H) (?H) (?H)
                 (?H) (?H) (?H) (?H) (?H) (?H) (?H) (?H) (?H) (?H)
                 (?H) (?H) (?H) (?H) (?H) (?H) (?H) (?H) (?H) (?H)
                 (?H) (?H) (?H) (?H) (?H) (?H) (?H) (?H) (?H) (?H)
                 (?H) (?H) (?H) (?H) (?H) (?H) (?H) (?H) (?H) (?H)
                 (?H) (?H) (?H) (?H) (?H) (?H) (A) (B) (?H) (?H)
                 (?H) (?H) (?H) (?H) (?H) (?H) (?H) (?H) (?H) (?H)
                 (?H) (?H) (?H) (?H) (?H) (?H) (?H) (?H) (?H) (?H)
                 (?H) (?H) (?H) (?H) (?H) (?H) (?H) (?H) (?H) (?H)
                 (?H) (?H) (?H) (?H) (?H) (?H) (?H) (?H) (?H) (?H)
                 (?H) (?H) (?H) (?H) (?H) (?H) (?H) (?H) (?H) (?H)
                 (?H) (?H) (?H) (?H) (?H) (?H) (?H) (?H) (?H) (?H)
                 (?H) (?H) (?H) (?H) (?H) (?H) (?H) (?H) (?H) (?H)
                 (?H) (?H) (?H) (?H) (?H) (?H) (?H) (?H) (?H) (?H)
                 (?H) (?H) (?H) (?H) (A) (?H) (?H) (?H) (?B) (?B)
                 (?H) (?H) (?B) (?H) (?B) (?H) (?H) (?B) (?H) (?B)
                 (?H) (?B) (?B) (?H) (?H) (?B) (?H) (?B) (?H) (A)
                 (?H) (B) (?H) (?B) (?B) (B) (A) (?I) (?I) (?J)
                 (?J) (?I) (?I) (?I) (?J) (?J) (?J) (?I) (?I) (?J)
                 (?I) (?K) (?K) (?B) (?K) (?K) (?B) (?B) (?B)
 Unable to determine electronic state:  an orbital has unidentified symmetry.
 Alpha  occ. eigenvalues --  -19.22257 -19.22255 -19.22243 -19.22239 -19.22238
 Alpha  occ. eigenvalues --  -19.22237 -19.19467 -19.19466 -19.19449 -19.19448
 Alpha  occ. eigenvalues --  -14.48175 -14.48174 -14.48032 -14.48031 -10.35019
 Alpha  occ. eigenvalues --  -10.35018 -10.35017 -10.35016 -10.31558 -10.31556
 Alpha  occ. eigenvalues --  -10.31539 -10.31538 -10.31451 -10.31450 -10.31432
 Alpha  occ. eigenvalues --  -10.31430 -10.29627 -10.29626 -10.29607 -10.29607
 Alpha  occ. eigenvalues --  -10.28639 -10.28639 -10.28621 -10.28621 -10.28129
 Alpha  occ. eigenvalues --  -10.28129 -10.28113 -10.28113  -3.51720  -3.35273
 Alpha  occ. eigenvalues --   -2.23885  -2.23849  -2.23834  -2.06606  -2.06317
 Alpha  occ. eigenvalues --   -2.05789  -1.09980  -1.09919  -1.09650  -1.09608
 Alpha  occ. eigenvalues --   -1.03876  -1.03646  -1.03549  -1.03380  -1.01038
 Alpha  occ. eigenvalues --   -1.00941  -1.00827  -1.00767  -0.95918  -0.93398
 Alpha  occ. eigenvalues --   -0.87427  -0.87407  -0.87372  -0.87318  -0.83870
 Alpha  occ. eigenvalues --   -0.83870  -0.83841  -0.83801  -0.71059  -0.71028
 Alpha  occ. eigenvalues --   -0.71022  -0.70910  -0.69582  -0.69533  -0.69410
 Alpha  occ. eigenvalues --   -0.69374  -0.62008  -0.61755  -0.61605  -0.61444
 Alpha  occ. eigenvalues --   -0.56927  -0.56564  -0.55701  -0.55592  -0.54940
 Alpha  occ. eigenvalues --   -0.54797  -0.54761  -0.54564  -0.52423  -0.52211
 Alpha  occ. eigenvalues --   -0.52017  -0.51866  -0.50224  -0.50115  -0.49872
 Alpha  occ. eigenvalues --   -0.49643  -0.49283  -0.49017  -0.48975  -0.48674
 Alpha  occ. eigenvalues --   -0.48310  -0.47954  -0.47827  -0.47160  -0.47064
 Alpha  occ. eigenvalues --   -0.45125  -0.44993  -0.44755  -0.44513  -0.44093
 Alpha  occ. eigenvalues --   -0.43381  -0.43262  -0.43047  -0.42858  -0.42569
 Alpha  occ. eigenvalues --   -0.42491  -0.42461  -0.42285  -0.42193  -0.41648
 Alpha  occ. eigenvalues --   -0.40524  -0.39382  -0.38539  -0.37101  -0.36509
 Alpha  occ. eigenvalues --   -0.35883  -0.35861  -0.35113  -0.34885  -0.34514
 Alpha  occ. eigenvalues --   -0.34403  -0.32737  -0.32577  -0.31947  -0.31379
 Alpha  occ. eigenvalues --   -0.31282  -0.31220  -0.31205  -0.31077  -0.30442
 Alpha  occ. eigenvalues --   -0.29603  -0.29288  -0.29167  -0.28981  -0.28579
 Alpha  occ. eigenvalues --   -0.27664  -0.27580  -0.27383  -0.27268
 Alpha virt. eigenvalues --   -0.11357  -0.09516  -0.09496  -0.07929  -0.07854
 Alpha virt. eigenvalues --   -0.07210  -0.06524  -0.06319  -0.05671  -0.05461
 Alpha virt. eigenvalues --   -0.05052  -0.04940  -0.04848  -0.03765  -0.00654
 Alpha virt. eigenvalues --    0.00155   0.01796   0.04296   0.05392   0.05463
 Alpha virt. eigenvalues --    0.05732   0.05762   0.05922   0.07188   0.07919
 Alpha virt. eigenvalues --    0.08092   0.08563   0.09285   0.09676   0.10339
 Alpha virt. eigenvalues --    0.10545   0.10759   0.12929   0.14173   0.14201
 Alpha virt. eigenvalues --    0.14345   0.14501   0.14569   0.15035   0.15163
 Alpha virt. eigenvalues --    0.16309   0.16590   0.16729   0.16781   0.16982
 Alpha virt. eigenvalues --    0.18566   0.18892   0.19834   0.19856   0.21563
 Alpha virt. eigenvalues --    0.21621   0.21878   0.22305   0.22311   0.23962
 Alpha virt. eigenvalues --    0.24417   0.24510   0.25167   0.26989   0.27073
 Alpha virt. eigenvalues --    0.27249   0.27856   0.28042   0.28084   0.28593
 Alpha virt. eigenvalues --    0.28714   0.28831   0.28923   0.29301   0.29485
 Alpha virt. eigenvalues --    0.30405   0.30575   0.31034   0.31314   0.31719
 Alpha virt. eigenvalues --    0.32373   0.32483   0.33989   0.34743   0.35211
 Alpha virt. eigenvalues --    0.35372   0.35521   0.36561   0.37061   0.38045
 Alpha virt. eigenvalues --    0.38332   0.40229   0.41179   0.41181   0.44523
 Alpha virt. eigenvalues --    0.45095   0.46487   0.46567   0.47073   0.48460
 Alpha virt. eigenvalues --    0.48718   0.49298   0.50207   0.50383   0.50435
 Alpha virt. eigenvalues --    0.51153   0.51396   0.51675   0.51900   0.52501
 Alpha virt. eigenvalues --    0.53406   0.54229   0.55135   0.55154   0.55264
 Alpha virt. eigenvalues --    0.55582   0.55606   0.58577   0.58857   0.58938
 Alpha virt. eigenvalues --    0.59073   0.59317   0.59417   0.59848   0.59882
 Alpha virt. eigenvalues --    0.60615   0.60674   0.60737   0.61292   0.61505
 Alpha virt. eigenvalues --    0.62483   0.62661   0.64131   0.64311   0.64473
 Alpha virt. eigenvalues --    0.65519   0.65588   0.65641   0.65752   0.65988
 Alpha virt. eigenvalues --    0.66799   0.66872   0.67003   0.68358   0.70271
 Alpha virt. eigenvalues --    0.70484   0.70857   0.70902   0.71719   0.73083
 Alpha virt. eigenvalues --    0.73660   0.73824   0.74930   0.75069   0.75987
 Alpha virt. eigenvalues --    0.76700   0.78125   0.78261   0.78261   0.78608
 Alpha virt. eigenvalues --    0.79029   0.80032   0.80042   0.80387   0.80522
 Alpha virt. eigenvalues --    0.80627   0.80797   0.81029   0.81793   0.81959
 Alpha virt. eigenvalues --    0.82973   0.83113   0.83946   0.84284   0.84634
 Alpha virt. eigenvalues --    0.84978   0.85368   0.85904   0.86358   0.86929
 Alpha virt. eigenvalues --    0.88834   0.89287   0.89609   0.89863   0.90009
 Alpha virt. eigenvalues --    0.91885   0.92120   0.92502   0.93402   0.93464
 Alpha virt. eigenvalues --    0.94720   0.95150   0.95399   0.96201   0.96711
 Alpha virt. eigenvalues --    0.96780   0.97567   0.97739   0.99272   1.01400
 Alpha virt. eigenvalues --    1.01417   1.01740   1.02142   1.02896   1.03720
 Alpha virt. eigenvalues --    1.04348   1.04791   1.05009   1.05029   1.05657
 Alpha virt. eigenvalues --    1.06253   1.06927   1.07701   1.08078   1.08511
 Alpha virt. eigenvalues --    1.08745   1.09146   1.09748   1.11461   1.12345
 Alpha virt. eigenvalues --    1.12959   1.13766   1.14410   1.14986   1.15101
 Alpha virt. eigenvalues --    1.15374   1.15694   1.16549   1.16781   1.17126
 Alpha virt. eigenvalues --    1.18025   1.18626   1.18889   1.19540   1.20117
 Alpha virt. eigenvalues --    1.20754   1.20891   1.22636   1.22704   1.23588
 Alpha virt. eigenvalues --    1.24001   1.25087   1.25638   1.25757   1.27248
 Alpha virt. eigenvalues --    1.27553   1.27757   1.28026   1.28180   1.29848
 Alpha virt. eigenvalues --    1.31233   1.31322   1.32007   1.32111   1.32297
 Alpha virt. eigenvalues --    1.32751   1.33131   1.33482   1.33581   1.34682
 Alpha virt. eigenvalues --    1.35242   1.35982   1.36198   1.36396   1.36570
 Alpha virt. eigenvalues --    1.37031   1.37156   1.37458   1.37920   1.38776
 Alpha virt. eigenvalues --    1.39069   1.40004   1.40188   1.40471   1.41346
 Alpha virt. eigenvalues --    1.43257   1.43302   1.44877   1.45433   1.45800
 Alpha virt. eigenvalues --    1.47100   1.47685   1.48325   1.49284   1.49468
 Alpha virt. eigenvalues --    1.49714   1.52866   1.53109   1.53385   1.54415
 Alpha virt. eigenvalues --    1.55700   1.56057   1.56301   1.56586   1.60964
 Alpha virt. eigenvalues --    1.62229   1.63482   1.65154   1.65173   1.66266
 Alpha virt. eigenvalues --    1.67231   1.69139   1.69348   1.69812   1.70910
 Alpha virt. eigenvalues --    1.71711   1.71977   1.72777   1.73824   1.74080
 Alpha virt. eigenvalues --    1.74501   1.74975   1.75009   1.75794   1.76346
 Alpha virt. eigenvalues --    1.76651   1.76693   1.77074   1.78093   1.78270
 Alpha virt. eigenvalues --    1.79148   1.79363   1.80066   1.80524   1.80743
 Alpha virt. eigenvalues --    1.82547   1.83608   1.84306   1.85481   1.85893
 Alpha virt. eigenvalues --    1.86217   1.86413   1.86901   1.87797   1.87984
 Alpha virt. eigenvalues --    1.88441   1.88670   1.89027   1.89961   1.90116
 Alpha virt. eigenvalues --    1.90564   1.91696   1.91960   1.92366   1.92660
 Alpha virt. eigenvalues --    1.93387   1.93776   1.93805   1.94783   1.95347
 Alpha virt. eigenvalues --    1.95734   1.95877   1.96074   1.96281   1.96749
 Alpha virt. eigenvalues --    1.97397   1.98347   1.99334   2.00316   2.00767
 Alpha virt. eigenvalues --    2.01157   2.01717   2.01895   2.02053   2.04099
 Alpha virt. eigenvalues --    2.04609   2.04962   2.05617   2.06861   2.06908
 Alpha virt. eigenvalues --    2.07616   2.07900   2.07987   2.08174   2.10002
 Alpha virt. eigenvalues --    2.10278   2.10824   2.12330   2.13004   2.13193
 Alpha virt. eigenvalues --    2.13651   2.14355   2.15884   2.17117   2.17125
 Alpha virt. eigenvalues --    2.17232   2.17979   2.22279   2.22383   2.23277
 Alpha virt. eigenvalues --    2.23734   2.23797   2.25624   2.26277   2.26558
 Alpha virt. eigenvalues --    2.26804   2.28473   2.28609   2.29239   2.29556
 Alpha virt. eigenvalues --    2.29772   2.30376   2.31403   2.32170   2.33061
 Alpha virt. eigenvalues --    2.33466   2.33474   2.34102   2.34388   2.34406
 Alpha virt. eigenvalues --    2.34732   2.35105   2.35449   2.35691   2.36638
 Alpha virt. eigenvalues --    2.39228   2.39358   2.39389   2.40262   2.41757
 Alpha virt. eigenvalues --    2.41789   2.42044   2.43762   2.44377   2.44974
 Alpha virt. eigenvalues --    2.45654   2.46792   2.48603   2.48983   2.49080
 Alpha virt. eigenvalues --    2.49516   2.49533   2.49792   2.51004   2.51516
 Alpha virt. eigenvalues --    2.51607   2.51957   2.52246   2.53336   2.54016
 Alpha virt. eigenvalues --    2.54050   2.54867   2.55984   2.56587   2.56711
 Alpha virt. eigenvalues --    2.56957   2.57397   2.58088   2.58936   2.61180
 Alpha virt. eigenvalues --    2.62366   2.62672   2.62769   2.63409   2.63982
 Alpha virt. eigenvalues --    2.64825   2.67199   2.68525   2.68983   2.69372
 Alpha virt. eigenvalues --    2.70693   2.70754   2.71036   2.71252   2.71789
 Alpha virt. eigenvalues --    2.72223   2.72494   2.75340   2.75424   2.75465
 Alpha virt. eigenvalues --    2.75763   2.76205   2.76710   2.76751   2.76922
 Alpha virt. eigenvalues --    2.77981   2.78300   2.79081   2.84866   2.84985
 Alpha virt. eigenvalues --    2.85185   2.85480   2.90633   2.91617   2.93759
 Alpha virt. eigenvalues --    2.94657   2.97121   2.98292   3.00451   3.00818
 Alpha virt. eigenvalues --    3.01045   3.01161   3.01785   3.03190   3.03586
 Alpha virt. eigenvalues --    3.07864   3.08529   3.09335   3.10209   3.10745
 Alpha virt. eigenvalues --    3.11486   3.11739   3.14504   3.17005   3.18137
 Alpha virt. eigenvalues --    3.18714   3.19990   3.21333   3.21448   3.21972
 Alpha virt. eigenvalues --    3.22158   3.25109   3.25724   3.26066   3.26223
 Alpha virt. eigenvalues --    3.31701   3.32325   3.32553   3.33264   3.34900
 Alpha virt. eigenvalues --    3.35055   3.35152   3.35556   3.43978   3.49791
 Alpha virt. eigenvalues --    3.50352   3.50661   3.50965   3.88876   3.88929
 Alpha virt. eigenvalues --    3.89269   3.89404   4.33852   4.38895   4.40019
 Alpha virt. eigenvalues --    4.41887   4.47899   4.52167   4.52714   4.53503
 Alpha virt. eigenvalues --    4.55590   4.57084   4.58074   4.59388   4.68291
 Alpha virt. eigenvalues --    4.68327  36.63742  36.67839  36.72926  36.88702
 Alpha virt. eigenvalues --   36.91657  36.97361  50.14159  50.45564
  Beta  occ. eigenvalues --  -19.22257 -19.22255 -19.22243 -19.22239 -19.22238
  Beta  occ. eigenvalues --  -19.22237 -19.19467 -19.19466 -19.19449 -19.19448
  Beta  occ. eigenvalues --  -14.48175 -14.48174 -14.48032 -14.48031 -10.35019
  Beta  occ. eigenvalues --  -10.35018 -10.35017 -10.35016 -10.31558 -10.31556
  Beta  occ. eigenvalues --  -10.31539 -10.31538 -10.31451 -10.31450 -10.31432
  Beta  occ. eigenvalues --  -10.31430 -10.29627 -10.29626 -10.29607 -10.29607
  Beta  occ. eigenvalues --  -10.28639 -10.28639 -10.28621 -10.28621 -10.28129
  Beta  occ. eigenvalues --  -10.28129 -10.28113 -10.28113  -3.51720  -3.35273
  Beta  occ. eigenvalues --   -2.23885  -2.23849  -2.23834  -2.06606  -2.06317
  Beta  occ. eigenvalues --   -2.05789  -1.09980  -1.09919  -1.09650  -1.09608
  Beta  occ. eigenvalues --   -1.03876  -1.03646  -1.03549  -1.03380  -1.01038
  Beta  occ. eigenvalues --   -1.00941  -1.00827  -1.00767  -0.95918  -0.93398
  Beta  occ. eigenvalues --   -0.87427  -0.87407  -0.87372  -0.87318  -0.83870
  Beta  occ. eigenvalues --   -0.83870  -0.83841  -0.83801  -0.71059  -0.71028
  Beta  occ. eigenvalues --   -0.71022  -0.70910  -0.69582  -0.69533  -0.69410
  Beta  occ. eigenvalues --   -0.69374  -0.62008  -0.61755  -0.61605  -0.61444
  Beta  occ. eigenvalues --   -0.56927  -0.56564  -0.55701  -0.55592  -0.54940
  Beta  occ. eigenvalues --   -0.54797  -0.54761  -0.54564  -0.52423  -0.52211
  Beta  occ. eigenvalues --   -0.52017  -0.51866  -0.50224  -0.50115  -0.49872
  Beta  occ. eigenvalues --   -0.49643  -0.49283  -0.49017  -0.48975  -0.48674
  Beta  occ. eigenvalues --   -0.48310  -0.47954  -0.47827  -0.47160  -0.47064
  Beta  occ. eigenvalues --   -0.45125  -0.44993  -0.44755  -0.44513  -0.44093
  Beta  occ. eigenvalues --   -0.43381  -0.43262  -0.43047  -0.42858  -0.42569
  Beta  occ. eigenvalues --   -0.42491  -0.42461  -0.42285  -0.42193  -0.41648
  Beta  occ. eigenvalues --   -0.40524  -0.39382  -0.38539  -0.37101  -0.36509
  Beta  occ. eigenvalues --   -0.35883  -0.35861  -0.35113  -0.34885  -0.34514
  Beta  occ. eigenvalues --   -0.34403  -0.32737  -0.32577  -0.31947  -0.31379
  Beta  occ. eigenvalues --   -0.31282  -0.31220  -0.31205  -0.31077  -0.30442
  Beta  occ. eigenvalues --   -0.29603  -0.29288  -0.29167  -0.28981  -0.28579
  Beta  occ. eigenvalues --   -0.27664  -0.27580  -0.27383  -0.27268
  Beta virt. eigenvalues --   -0.11357  -0.09516  -0.09496  -0.07929  -0.07854
  Beta virt. eigenvalues --   -0.07210  -0.06524  -0.06319  -0.05671  -0.05461
  Beta virt. eigenvalues --   -0.05052  -0.04940  -0.04848  -0.03765  -0.00654
  Beta virt. eigenvalues --    0.00155   0.01796   0.04296   0.05392   0.05463
  Beta virt. eigenvalues --    0.05732   0.05762   0.05922   0.07188   0.07919
  Beta virt. eigenvalues --    0.08092   0.08563   0.09285   0.09676   0.10339
  Beta virt. eigenvalues --    0.10545   0.10759   0.12929   0.14173   0.14201
  Beta virt. eigenvalues --    0.14345   0.14501   0.14569   0.15035   0.15163
  Beta virt. eigenvalues --    0.16309   0.16590   0.16729   0.16781   0.16982
  Beta virt. eigenvalues --    0.18566   0.18892   0.19834   0.19856   0.21563
  Beta virt. eigenvalues --    0.21621   0.21878   0.22305   0.22311   0.23962
  Beta virt. eigenvalues --    0.24417   0.24510   0.25167   0.26989   0.27073
  Beta virt. eigenvalues --    0.27249   0.27856   0.28042   0.28084   0.28593
  Beta virt. eigenvalues --    0.28714   0.28831   0.28923   0.29301   0.29485
  Beta virt. eigenvalues --    0.30405   0.30575   0.31034   0.31314   0.31719
  Beta virt. eigenvalues --    0.32373   0.32483   0.33989   0.34743   0.35211
  Beta virt. eigenvalues --    0.35372   0.35521   0.36561   0.37061   0.38045
  Beta virt. eigenvalues --    0.38332   0.40229   0.41179   0.41181   0.44523
  Beta virt. eigenvalues --    0.45095   0.46487   0.46567   0.47073   0.48460
  Beta virt. eigenvalues --    0.48718   0.49298   0.50207   0.50383   0.50435
  Beta virt. eigenvalues --    0.51153   0.51396   0.51675   0.51900   0.52501
  Beta virt. eigenvalues --    0.53406   0.54229   0.55135   0.55154   0.55264
  Beta virt. eigenvalues --    0.55582   0.55606   0.58577   0.58857   0.58938
  Beta virt. eigenvalues --    0.59073   0.59317   0.59417   0.59848   0.59882
  Beta virt. eigenvalues --    0.60615   0.60674   0.60737   0.61292   0.61505
  Beta virt. eigenvalues --    0.62483   0.62661   0.64131   0.64311   0.64473
  Beta virt. eigenvalues --    0.65519   0.65588   0.65641   0.65752   0.65988
  Beta virt. eigenvalues --    0.66799   0.66872   0.67003   0.68358   0.70271
  Beta virt. eigenvalues --    0.70484   0.70857   0.70902   0.71719   0.73083
  Beta virt. eigenvalues --    0.73660   0.73824   0.74930   0.75069   0.75987
  Beta virt. eigenvalues --    0.76700   0.78125   0.78261   0.78261   0.78608
  Beta virt. eigenvalues --    0.79029   0.80032   0.80042   0.80387   0.80522
  Beta virt. eigenvalues --    0.80627   0.80797   0.81029   0.81793   0.81959
  Beta virt. eigenvalues --    0.82973   0.83113   0.83946   0.84284   0.84634
  Beta virt. eigenvalues --    0.84978   0.85368   0.85904   0.86358   0.86929
  Beta virt. eigenvalues --    0.88834   0.89287   0.89609   0.89863   0.90009
  Beta virt. eigenvalues --    0.91885   0.92120   0.92502   0.93402   0.93464
  Beta virt. eigenvalues --    0.94720   0.95150   0.95399   0.96201   0.96711
  Beta virt. eigenvalues --    0.96780   0.97567   0.97739   0.99272   1.01400
  Beta virt. eigenvalues --    1.01417   1.01740   1.02142   1.02896   1.03720
  Beta virt. eigenvalues --    1.04348   1.04791   1.05009   1.05029   1.05657
  Beta virt. eigenvalues --    1.06253   1.06927   1.07701   1.08078   1.08511
  Beta virt. eigenvalues --    1.08745   1.09146   1.09748   1.11461   1.12345
  Beta virt. eigenvalues --    1.12959   1.13766   1.14410   1.14986   1.15101
  Beta virt. eigenvalues --    1.15374   1.15694   1.16549   1.16781   1.17126
  Beta virt. eigenvalues --    1.18025   1.18626   1.18889   1.19540   1.20117
  Beta virt. eigenvalues --    1.20754   1.20891   1.22636   1.22704   1.23588
  Beta virt. eigenvalues --    1.24001   1.25087   1.25638   1.25757   1.27248
  Beta virt. eigenvalues --    1.27553   1.27757   1.28026   1.28180   1.29848
  Beta virt. eigenvalues --    1.31233   1.31322   1.32007   1.32111   1.32297
  Beta virt. eigenvalues --    1.32751   1.33131   1.33482   1.33581   1.34682
  Beta virt. eigenvalues --    1.35242   1.35982   1.36198   1.36396   1.36570
  Beta virt. eigenvalues --    1.37031   1.37156   1.37458   1.37920   1.38776
  Beta virt. eigenvalues --    1.39069   1.40004   1.40188   1.40471   1.41346
  Beta virt. eigenvalues --    1.43257   1.43302   1.44877   1.45433   1.45800
  Beta virt. eigenvalues --    1.47100   1.47685   1.48325   1.49284   1.49468
  Beta virt. eigenvalues --    1.49714   1.52866   1.53109   1.53385   1.54415
  Beta virt. eigenvalues --    1.55700   1.56057   1.56301   1.56586   1.60964
  Beta virt. eigenvalues --    1.62229   1.63482   1.65154   1.65173   1.66266
  Beta virt. eigenvalues --    1.67231   1.69139   1.69348   1.69812   1.70910
  Beta virt. eigenvalues --    1.71711   1.71977   1.72777   1.73824   1.74080
  Beta virt. eigenvalues --    1.74501   1.74975   1.75009   1.75794   1.76346
  Beta virt. eigenvalues --    1.76651   1.76693   1.77074   1.78093   1.78270
  Beta virt. eigenvalues --    1.79148   1.79363   1.80066   1.80524   1.80743
  Beta virt. eigenvalues --    1.82547   1.83608   1.84306   1.85481   1.85893
  Beta virt. eigenvalues --    1.86217   1.86413   1.86901   1.87797   1.87984
  Beta virt. eigenvalues --    1.88441   1.88670   1.89027   1.89961   1.90116
  Beta virt. eigenvalues --    1.90564   1.91696   1.91960   1.92366   1.92660
  Beta virt. eigenvalues --    1.93387   1.93776   1.93805   1.94783   1.95347
  Beta virt. eigenvalues --    1.95734   1.95877   1.96074   1.96281   1.96749
  Beta virt. eigenvalues --    1.97397   1.98347   1.99334   2.00316   2.00767
  Beta virt. eigenvalues --    2.01157   2.01717   2.01895   2.02053   2.04099
  Beta virt. eigenvalues --    2.04609   2.04962   2.05617   2.06861   2.06908
  Beta virt. eigenvalues --    2.07616   2.07900   2.07987   2.08174   2.10002
  Beta virt. eigenvalues --    2.10278   2.10824   2.12330   2.13004   2.13193
  Beta virt. eigenvalues --    2.13651   2.14355   2.15884   2.17117   2.17125
  Beta virt. eigenvalues --    2.17232   2.17979   2.22279   2.22383   2.23277
  Beta virt. eigenvalues --    2.23734   2.23797   2.25624   2.26277   2.26558
  Beta virt. eigenvalues --    2.26804   2.28473   2.28609   2.29239   2.29556
  Beta virt. eigenvalues --    2.29772   2.30376   2.31403   2.32170   2.33061
  Beta virt. eigenvalues --    2.33466   2.33474   2.34102   2.34388   2.34406
  Beta virt. eigenvalues --    2.34732   2.35105   2.35449   2.35691   2.36638
  Beta virt. eigenvalues --    2.39228   2.39358   2.39389   2.40262   2.41757
  Beta virt. eigenvalues --    2.41789   2.42044   2.43762   2.44377   2.44974
  Beta virt. eigenvalues --    2.45654   2.46792   2.48603   2.48983   2.49080
  Beta virt. eigenvalues --    2.49516   2.49533   2.49792   2.51004   2.51516
  Beta virt. eigenvalues --    2.51607   2.51957   2.52246   2.53336   2.54016
  Beta virt. eigenvalues --    2.54050   2.54867   2.55984   2.56587   2.56711
  Beta virt. eigenvalues --    2.56957   2.57397   2.58088   2.58936   2.61180
  Beta virt. eigenvalues --    2.62366   2.62672   2.62769   2.63409   2.63982
  Beta virt. eigenvalues --    2.64825   2.67199   2.68525   2.68983   2.69372
  Beta virt. eigenvalues --    2.70693   2.70754   2.71036   2.71252   2.71789
  Beta virt. eigenvalues --    2.72223   2.72494   2.75340   2.75424   2.75465
  Beta virt. eigenvalues --    2.75763   2.76205   2.76710   2.76751   2.76922
  Beta virt. eigenvalues --    2.77981   2.78300   2.79081   2.84866   2.84985
  Beta virt. eigenvalues --    2.85185   2.85480   2.90633   2.91617   2.93759
  Beta virt. eigenvalues --    2.94657   2.97121   2.98292   3.00451   3.00818
  Beta virt. eigenvalues --    3.01045   3.01161   3.01785   3.03190   3.03586
  Beta virt. eigenvalues --    3.07864   3.08529   3.09335   3.10209   3.10745
  Beta virt. eigenvalues --    3.11486   3.11739   3.14504   3.17005   3.18137
  Beta virt. eigenvalues --    3.18714   3.19990   3.21333   3.21448   3.21972
  Beta virt. eigenvalues --    3.22158   3.25109   3.25724   3.26066   3.26223
  Beta virt. eigenvalues --    3.31701   3.32325   3.32553   3.33264   3.34900
  Beta virt. eigenvalues --    3.35055   3.35152   3.35556   3.43978   3.49791
  Beta virt. eigenvalues --    3.50352   3.50661   3.50965   3.88876   3.88929
  Beta virt. eigenvalues --    3.89269   3.89404   4.33852   4.38895   4.40019
  Beta virt. eigenvalues --    4.41887   4.47899   4.52167   4.52714   4.53503
  Beta virt. eigenvalues --    4.55590   4.57084   4.58074   4.59388   4.68291
  Beta virt. eigenvalues --    4.68327  36.63742  36.67839  36.72926  36.88702
  Beta virt. eigenvalues --   36.91657  36.97361  50.14159  50.45564
          Condensed to atoms (all electrons):
 Mulliken atomic charges:
              1
     1  Mn   1.118074
     2  Mn   1.118073
     3  O   -0.657297
     4  O   -0.541440
     5  O   -0.464694
     6  O   -0.657297
     7  O   -0.541440
     8  O   -0.541440
     9  O   -0.541440
    10  O   -0.464695
    11  O   -0.464695
    12  O   -0.464694
    13  N   -0.540226
    14  N   -0.540226
    15  N   -0.540227
    16  N   -0.540226
    17  C    0.104066
    18  C   -0.155217
    19  C   -0.098923
    20  C   -0.129831
    21  C    0.207906
    22  C    0.646133
    23  C    0.104066
    24  C    0.207906
    25  C    0.646134
    26  C    0.104066
    27  C    0.207906
    28  C    0.104066
    29  C    0.207906
    30  C    0.646134
    31  C    0.646133
    32  C   -0.155217
    33  C   -0.129832
    34  C   -0.155217
    35  C   -0.129832
    36  C   -0.155217
    37  C   -0.129831
    38  C   -0.098924
    39  C   -0.098924
    40  C   -0.098923
    41  H    0.219515
    42  H    0.168198
    43  H    0.165997
    44  H    0.188129
    45  H    0.219515
    46  H    0.219515
    47  H    0.219515
    48  H    0.168199
    49  H    0.188129
    50  H    0.168199
    51  H    0.188129
    52  H    0.168198
    53  H    0.188129
    54  H    0.165997
    55  H    0.165997
    56  H    0.165997
 Sum of Mulliken atomic charges =  -0.00000
 Mulliken charges with hydrogens summed into heavy atoms:
              1
     1  Mn   1.118074
     2  Mn   1.118073
     3  O   -0.657297
     4  O   -0.541440
     5  O   -0.464694
     6  O   -0.657297
     7  O   -0.541440
     8  O   -0.541440
     9  O   -0.541440
    10  O   -0.464695
    11  O   -0.464695
    12  O   -0.464694
    13  N   -0.540226
    14  N   -0.540226
    15  N   -0.540227
    16  N   -0.540226
    17  C    0.323581
    18  C    0.012981
    19  C    0.067073
    20  C    0.058297
    21  C    0.207906
    22  C    0.646133
    23  C    0.323581
    24  C    0.207906
    25  C    0.646134
    26  C    0.323581
    27  C    0.207906
    28  C    0.323581
    29  C    0.207906
    30  C    0.646134
    31  C    0.646133
    32  C    0.012982
    33  C    0.058297
    34  C    0.012982
    35  C    0.058297
    36  C    0.012981
    37  C    0.058297
    38  C    0.067073
    39  C    0.067073
    40  C    0.067073
 Sum of Mulliken charges with hydrogens summed into heavy atoms =  -0.00000
          Condensed to fragments (all electrons):
     1      -2.236147
     2       1.118074
     3       1.118073
          Atomic-Atomic Spin Densities.
              1          2          3          4          5          6
     1  Mn   3.122875  -0.000000  -0.052248  -0.017289  -0.000242  -0.052248
     2  Mn  -0.000000  -3.122873   0.052248   0.001332   0.000018   0.052248
     3  O   -0.052248   0.052248  -0.000001  -0.000220  -0.000000   0.000000
     4  O   -0.017289   0.001332  -0.000220   0.007622   0.001152   0.000424
     5  O   -0.000242   0.000018  -0.000000   0.001152   0.007311  -0.000002
     6  O   -0.052248   0.052248   0.000000   0.000424  -0.000002  -0.000002
     7  O   -0.017289   0.001332   0.000424  -0.000386  -0.000002  -0.000220
     8  O   -0.001332   0.017289   0.000220   0.000000  -0.000000  -0.000424
     9  O   -0.001332   0.017289  -0.000424  -0.000000  -0.000000   0.000220
    10  O   -0.000242   0.000018  -0.000002  -0.000002   0.000000  -0.000000
    11  O   -0.000018   0.000242   0.000000   0.000000   0.000000   0.000002
    12  O   -0.000018   0.000242   0.000002   0.000000   0.000000   0.000000
    13  N    0.010275  -0.006135  -0.000899   0.002038  -0.000004   0.000098
    14  N    0.010275  -0.006135   0.000098   0.000329   0.000001  -0.000899
    15  N    0.006135  -0.010275   0.000899  -0.000000   0.000000  -0.000098
    16  N    0.006135  -0.010275  -0.000098  -0.000001   0.000000   0.000899
    17  C   -0.001185   0.000521   0.000217  -0.000088  -0.000003   0.000146
    18  C   -0.000480   0.000114  -0.000077   0.000002  -0.000000  -0.000000
    19  C    0.000144  -0.000112   0.000000   0.000000   0.000000  -0.000000
    20  C   -0.000182  -0.000132   0.000001  -0.000030  -0.000170  -0.000000
    21  C    0.000395   0.000860  -0.000126  -0.002023  -0.000822   0.000246
    22  C   -0.002929  -0.000060  -0.000026   0.001922   0.000024  -0.000100
    23  C   -0.001185   0.000521   0.000146   0.000031  -0.000000   0.000217
    24  C    0.000395   0.000860   0.000246  -0.000017  -0.000000  -0.000126
    25  C   -0.002929  -0.000060  -0.000100   0.000061  -0.000000  -0.000026
    26  C   -0.000521   0.001185  -0.000217   0.000000  -0.000000  -0.000146
    27  C   -0.000860  -0.000395   0.000126   0.000000  -0.000000  -0.000246
    28  C   -0.000521   0.001185  -0.000146   0.000007   0.000001  -0.000217
    29  C   -0.000860  -0.000395  -0.000246   0.000000  -0.000000   0.000126
    30  C    0.000060   0.002929   0.000026  -0.000000  -0.000000   0.000100
    31  C    0.000060   0.002929   0.000100   0.000000  -0.000000   0.000026
    32  C   -0.000480   0.000114  -0.000000   0.000002   0.000000  -0.000077
    33  C   -0.000182  -0.000132  -0.000000   0.000001   0.000000   0.000001
    34  C   -0.000114   0.000480   0.000077   0.000000   0.000000   0.000000
    35  C    0.000132   0.000182  -0.000001  -0.000000   0.000000   0.000000
    36  C   -0.000114   0.000480   0.000000  -0.000000  -0.000000   0.000077
    37  C    0.000132   0.000182   0.000000  -0.000000   0.000000  -0.000001
    38  C    0.000144  -0.000112  -0.000000  -0.000001   0.000000   0.000000
    39  C    0.000112  -0.000144  -0.000000  -0.000000  -0.000000   0.000000
    40  C    0.000112  -0.000144   0.000000  -0.000000  -0.000000  -0.000000
    41  H   -0.001497   0.001367   0.000343  -0.000006  -0.000000  -0.000006
    42  H   -0.000062   0.000065   0.000002  -0.000000   0.000000   0.000000
    43  H    0.000004  -0.000003  -0.000000   0.000000  -0.000000   0.000000
    44  H   -0.000018   0.000003  -0.000000   0.000002   0.000103   0.000000
    45  H   -0.001497   0.001367  -0.000006  -0.000006  -0.000000   0.000343
    46  H   -0.001367   0.001497  -0.000343   0.000000   0.000000   0.000006
    47  H   -0.001367   0.001497   0.000006   0.000022  -0.000003  -0.000343
    48  H   -0.000062   0.000065   0.000000  -0.000000  -0.000000   0.000002
    49  H   -0.000018   0.000003   0.000000  -0.000000  -0.000000  -0.000000
    50  H   -0.000065   0.000062  -0.000002   0.000000   0.000000  -0.000000
    51  H   -0.000003   0.000018   0.000000   0.000000   0.000000  -0.000000
    52  H   -0.000065   0.000062  -0.000000   0.000000  -0.000000  -0.000002
    53  H   -0.000003   0.000018  -0.000000   0.000000  -0.000000   0.000000
    54  H    0.000004  -0.000003   0.000000   0.000000   0.000000  -0.000000
    55  H    0.000003  -0.000004   0.000000  -0.000000  -0.000000  -0.000000
    56  H    0.000003  -0.000004  -0.000000  -0.000000  -0.000000   0.000000
              7          8          9         10         11         12
     1  Mn  -0.017289  -0.001332  -0.001332  -0.000242  -0.000018  -0.000018
     2  Mn   0.001332   0.017289   0.017289   0.000018   0.000242   0.000242
     3  O    0.000424   0.000220  -0.000424  -0.000002   0.000000   0.000002
     4  O   -0.000386   0.000000  -0.000000  -0.000002   0.000000   0.000000
     5  O   -0.000002  -0.000000  -0.000000   0.000000   0.000000   0.000000
     6  O   -0.000220  -0.000424   0.000220  -0.000000   0.000002   0.000000
     7  O    0.007623  -0.000000  -0.000000   0.001152   0.000000   0.000000
     8  O   -0.000000  -0.007623   0.000386  -0.000000  -0.001152   0.000002
     9  O   -0.000000   0.000386  -0.007623  -0.000000   0.000002  -0.001152
    10  O    0.001152  -0.000000  -0.000000   0.007311   0.000000  -0.000000
    11  O    0.000000  -0.001152   0.000002   0.000000  -0.007311  -0.000000
    12  O    0.000000   0.000002  -0.001152  -0.000000  -0.000000  -0.007310
    13  N    0.000329   0.000000   0.000001   0.000001  -0.000000  -0.000000
    14  N    0.002038   0.000001   0.000000  -0.000004  -0.000000  -0.000000
    15  N   -0.000001  -0.002038  -0.000329   0.000000   0.000004  -0.000001
    16  N   -0.000000  -0.000329  -0.002038   0.000000  -0.000001   0.000004
    17  C    0.000031  -0.000000  -0.000007  -0.000000   0.000000  -0.000001
    18  C    0.000002  -0.000000   0.000000   0.000000  -0.000000   0.000000
    19  C   -0.000001   0.000000   0.000000   0.000000   0.000000   0.000000
    20  C    0.000001   0.000000   0.000000   0.000000  -0.000000  -0.000000
    21  C   -0.000017  -0.000000  -0.000000  -0.000000   0.000000   0.000000
    22  C    0.000061   0.000000  -0.000000  -0.000000   0.000000   0.000000
    23  C   -0.000088  -0.000007  -0.000000  -0.000003  -0.000001   0.000000
    24  C   -0.002023  -0.000000  -0.000000  -0.000822   0.000000   0.000000
    25  C    0.001922  -0.000000   0.000000   0.000024   0.000000   0.000000
    26  C    0.000007   0.000088  -0.000031   0.000001   0.000003   0.000000
    27  C    0.000000   0.002023   0.000017  -0.000000   0.000822   0.000000
    28  C    0.000000  -0.000031   0.000088  -0.000000   0.000000   0.000003
    29  C    0.000000   0.000017   0.002023  -0.000000   0.000000   0.000822
    30  C    0.000000  -0.001922  -0.000061  -0.000000  -0.000024   0.000000
    31  C   -0.000000  -0.000061  -0.001922  -0.000000   0.000000  -0.000024
    32  C    0.000002   0.000000  -0.000000  -0.000000   0.000000  -0.000000
    33  C   -0.000030   0.000000   0.000000  -0.000170  -0.000000  -0.000000
    34  C   -0.000000  -0.000002  -0.000002  -0.000000   0.000000  -0.000000
    35  C   -0.000000   0.000030  -0.000001   0.000000   0.000170  -0.000000
    36  C    0.000000  -0.000002  -0.000002   0.000000  -0.000000   0.000000
    37  C   -0.000000  -0.000001   0.000030   0.000000  -0.000000   0.000170
    38  C    0.000000   0.000000   0.000000   0.000000   0.000000   0.000000
    39  C   -0.000000  -0.000000   0.000001  -0.000000  -0.000000  -0.000000
    40  C   -0.000000   0.000001  -0.000000  -0.000000  -0.000000  -0.000000
    41  H   -0.000006  -0.000000  -0.000022  -0.000000  -0.000000   0.000003
    42  H   -0.000000  -0.000000  -0.000000  -0.000000  -0.000000   0.000000
    43  H    0.000000   0.000000   0.000000   0.000000   0.000000   0.000000
    44  H   -0.000000  -0.000000  -0.000000  -0.000000  -0.000000   0.000000
    45  H   -0.000006  -0.000022  -0.000000  -0.000000   0.000003  -0.000000
    46  H    0.000022   0.000006   0.000006  -0.000003   0.000000   0.000000
    47  H    0.000000   0.000006   0.000006   0.000000   0.000000   0.000000
    48  H   -0.000000  -0.000000  -0.000000   0.000000   0.000000  -0.000000
    49  H    0.000002  -0.000000  -0.000000   0.000103   0.000000  -0.000000
    50  H    0.000000   0.000000   0.000000  -0.000000  -0.000000   0.000000
    51  H    0.000000  -0.000002   0.000000  -0.000000  -0.000103   0.000000
    52  H    0.000000   0.000000   0.000000   0.000000   0.000000  -0.000000
    53  H    0.000000   0.000000  -0.000002   0.000000   0.000000  -0.000103
    54  H    0.000000   0.000000   0.000000  -0.000000   0.000000   0.000000
    55  H   -0.000000  -0.000000  -0.000000  -0.000000   0.000000  -0.000000
    56  H   -0.000000  -0.000000  -0.000000  -0.000000  -0.000000   0.000000
             13         14         15         16         17         18
     1  Mn   0.010275   0.010275   0.006135   0.006135  -0.001185  -0.000480
     2  Mn  -0.006135  -0.006135  -0.010275  -0.010275   0.000521   0.000114
     3  O   -0.000899   0.000098   0.000899  -0.000098   0.000217  -0.000077
     4  O    0.002038   0.000329  -0.000000  -0.000001  -0.000088   0.000002
     5  O   -0.000004   0.000001   0.000000   0.000000  -0.000003  -0.000000
     6  O    0.000098  -0.000899  -0.000098   0.000899   0.000146  -0.000000
     7  O    0.000329   0.002038  -0.000001  -0.000000   0.000031   0.000002
     8  O    0.000000   0.000001  -0.002038  -0.000329  -0.000000  -0.000000
     9  O    0.000001   0.000000  -0.000329  -0.002038  -0.000007   0.000000
    10  O    0.000001  -0.000004   0.000000   0.000000  -0.000000   0.000000
    11  O   -0.000000  -0.000000   0.000004  -0.000001   0.000000  -0.000000
    12  O   -0.000000  -0.000000  -0.000001   0.000004  -0.000001   0.000000
    13  N   -0.079214  -0.000464  -0.000000   0.000000   0.001938   0.001504
    14  N   -0.000464  -0.079214   0.000000   0.000000   0.000010  -0.000000
    15  N   -0.000000   0.000000   0.079212   0.000464   0.000000  -0.000000
    16  N    0.000000   0.000000   0.000464   0.079212  -0.000227   0.000002
    17  C    0.001938   0.000010   0.000000  -0.000227   0.011932   0.002313
    18  C    0.001504  -0.000000  -0.000000   0.000002   0.002313  -0.016132
    19  C   -0.000565  -0.000000  -0.000000   0.000001  -0.000285   0.000637
    20  C    0.000953  -0.000000   0.000000   0.000001  -0.000145  -0.000166
    21  C    0.005926   0.000055  -0.000000  -0.000031  -0.001369  -0.000073
    22  C    0.001736   0.000045  -0.000000   0.000002  -0.000196   0.000006
    23  C    0.000010   0.001938  -0.000227   0.000000  -0.000000  -0.000000
    24  C    0.000055   0.005926  -0.000031  -0.000000  -0.000001  -0.000000
    25  C    0.000045   0.001736   0.000002  -0.000000  -0.000003   0.000001
    26  C   -0.000000   0.000227  -0.001938  -0.000010  -0.000000  -0.000000
    27  C    0.000000   0.000031  -0.005926  -0.000055  -0.000000  -0.000000
    28  C    0.000227  -0.000000  -0.000010  -0.001938  -0.000000  -0.000038
    29  C    0.000031   0.000000  -0.000055  -0.005926   0.000120  -0.000025
    30  C    0.000000  -0.000002  -0.001736  -0.000045  -0.000000  -0.000000
    31  C   -0.000002   0.000000  -0.000045  -0.001736  -0.000001  -0.000001
    32  C   -0.000000   0.001504   0.000002  -0.000000  -0.000000  -0.000000
    33  C   -0.000000   0.000953   0.000001   0.000000  -0.000000  -0.000000
    34  C    0.000000  -0.000002  -0.001504   0.000000   0.000000   0.000000
    35  C   -0.000000  -0.000001  -0.000953   0.000000   0.000000  -0.000000
    36  C   -0.000002   0.000000   0.000000  -0.001504   0.000038  -0.000000
    37  C   -0.000001  -0.000000   0.000000  -0.000953  -0.000007   0.000005
    38  C   -0.000000  -0.000565   0.000001  -0.000000   0.000000   0.000000
    39  C    0.000000  -0.000001   0.000565   0.000000  -0.000000  -0.000000
    40  C   -0.000001   0.000000   0.000000   0.000565  -0.000026   0.000009
    41  H    0.000676   0.000004  -0.000001  -0.000127  -0.000940   0.000671
    42  H    0.000007   0.000000   0.000000  -0.000000  -0.000582   0.000543
    43  H    0.000002  -0.000000  -0.000000  -0.000000   0.000040  -0.000012
    44  H    0.000007   0.000000   0.000000  -0.000000  -0.000021   0.000023
    45  H    0.000004   0.000676  -0.000127  -0.000001  -0.000000   0.000000
    46  H    0.000001   0.000127  -0.000676  -0.000004  -0.000001   0.000000
    47  H    0.000127   0.000001  -0.000004  -0.000676   0.000039  -0.000007
    48  H    0.000000   0.000007  -0.000000   0.000000  -0.000000   0.000000
    49  H    0.000000   0.000007  -0.000000   0.000000  -0.000000   0.000000
    50  H   -0.000000   0.000000  -0.000007  -0.000000   0.000000   0.000000
    51  H   -0.000000   0.000000  -0.000007  -0.000000  -0.000000  -0.000000
    52  H    0.000000  -0.000000  -0.000000  -0.000007   0.000003  -0.000001
    53  H    0.000000  -0.000000  -0.000000  -0.000007   0.000000  -0.000000
    54  H   -0.000000   0.000002  -0.000000  -0.000000   0.000000  -0.000000
    55  H    0.000000   0.000000  -0.000002   0.000000   0.000000   0.000000
    56  H    0.000000   0.000000   0.000000  -0.000002  -0.000000   0.000000
             19         20         21         22         23         24
     1  Mn   0.000144  -0.000182   0.000395  -0.002929  -0.001185   0.000395
     2  Mn  -0.000112  -0.000132   0.000860  -0.000060   0.000521   0.000860
     3  O    0.000000   0.000001  -0.000126  -0.000026   0.000146   0.000246
     4  O    0.000000  -0.000030  -0.002023   0.001922   0.000031  -0.000017
     5  O    0.000000  -0.000170  -0.000822   0.000024  -0.000000  -0.000000
     6  O   -0.000000  -0.000000   0.000246  -0.000100   0.000217  -0.000126
     7  O   -0.000001   0.000001  -0.000017   0.000061  -0.000088  -0.002023
     8  O    0.000000   0.000000  -0.000000   0.000000  -0.000007  -0.000000
     9  O    0.000000   0.000000  -0.000000  -0.000000  -0.000000  -0.000000
    10  O    0.000000   0.000000  -0.000000  -0.000000  -0.000003  -0.000822
    11  O    0.000000  -0.000000   0.000000   0.000000  -0.000001   0.000000
    12  O    0.000000  -0.000000   0.000000   0.000000   0.000000   0.000000
    13  N   -0.000565   0.000953   0.005926   0.001736   0.000010   0.000055
    14  N   -0.000000  -0.000000   0.000055   0.000045   0.001938   0.005926
    15  N   -0.000000   0.000000  -0.000000  -0.000000  -0.000227  -0.000031
    16  N    0.000001   0.000001  -0.000031   0.000002   0.000000  -0.000000
    17  C   -0.000285  -0.000145  -0.001369  -0.000196  -0.000000  -0.000001
    18  C    0.000637  -0.000166  -0.000073   0.000006  -0.000000  -0.000000
    19  C    0.013858   0.000168   0.000064   0.000047   0.000000   0.000000
[...]
     8   Atom       -0.061356      0.045799     -0.033896
     9   Atom        0.061356     -0.045798     -0.033897
    10   Atom        0.036740      0.021596      0.021588
    11   Atom       -0.036740      0.021595      0.021588
    12   Atom        0.036740     -0.021596      0.021589
    13   Atom        0.015819     -0.018703     -0.013053
    14   Atom       -0.015819      0.018703     -0.013053
    15   Atom        0.015818      0.018703     -0.013052
    16   Atom       -0.015818     -0.018703     -0.013052
    17   Atom       -0.000416     -0.016311     -0.008922
    18   Atom        0.005886     -0.002901     -0.003610
    19   Atom       -0.008152     -0.004429      0.002157
    20   Atom        0.004487      0.002506     -0.000840
    21   Atom       -0.005732      0.009059      0.007098
    22   Atom        0.019428      0.019667      0.018046
    23   Atom        0.000416      0.016311     -0.008922
    24   Atom        0.005732     -0.009060      0.007098
    25   Atom       -0.019428     -0.019667      0.018046
    26   Atom       -0.000415      0.016310     -0.008923
    27   Atom       -0.005731     -0.009060      0.007098
    28   Atom        0.000415     -0.016311     -0.008922
    29   Atom        0.005731      0.009060      0.007098
    30   Atom        0.019428     -0.019667      0.018046
    31   Atom       -0.019428      0.019667      0.018046
    32   Atom       -0.005886      0.002901     -0.003610
    33   Atom       -0.004487     -0.002506     -0.000840
    34   Atom        0.005885      0.002901     -0.003610
    35   Atom        0.004486     -0.002505     -0.000840
    36   Atom       -0.005885     -0.002901     -0.003610
    37   Atom       -0.004486      0.002505     -0.000840
    38   Atom        0.008152      0.004429      0.002157
    39   Atom       -0.008152      0.004429      0.002156
    40   Atom        0.008152     -0.004429      0.002156
    41   Atom        0.017179     -0.020275     -0.008098
    42   Atom        0.001293     -0.002609     -0.000996
    43   Atom       -0.000399     -0.000116     -0.000462
    44   Atom        0.000199      0.002041      0.001321
    45   Atom       -0.017179      0.020275     -0.008098
    46   Atom        0.017179      0.020275     -0.008098
    47   Atom       -0.017179     -0.020275     -0.008098
    48   Atom       -0.001293      0.002609     -0.000996
    49   Atom       -0.000199     -0.002041      0.001321
    50   Atom        0.001293      0.002609     -0.000996
    51   Atom        0.000199     -0.002042      0.001321
    52   Atom       -0.001293     -0.002609     -0.000996
    53   Atom       -0.000199      0.002042      0.001321
    54   Atom        0.000399      0.000116     -0.000462
    55   Atom       -0.000399      0.000116     -0.000462
    56   Atom        0.000399     -0.000116     -0.000462
 --------------------------------------------------------


 ---------------------------------------------------------------------------------
              Anisotropic Spin Dipole Couplings in Principal Axis System
 ---------------------------------------------------------------------------------

       Atom             a.u.   MegaHertz   Gauss  10(-4) cm-1        Axes

              Baa    -0.2018   -26.630    -9.502    -8.883 -0.0000 -0.3678  0.9299
     1 Mn(55) Bbb    -0.0495    -6.536    -2.332    -2.180  1.0000 -0.0000  0.0000
              Bcc     0.2514    33.166    11.834    11.063  0.0000  0.9299  0.3678
 
              Baa    -0.2514   -33.165   -11.834   -11.063  0.0000  0.9299 -0.3678
     2 Mn(55) Bbb     0.0495     6.535     2.332     2.180  1.0000 -0.0000 -0.0000
              Bcc     0.2018    26.630     9.502     8.883  0.0000  0.3678  0.9299
 
              Baa    -0.5771    41.756    14.899    13.928  0.6670  0.7071 -0.2347
     3 O(17)  Bbb     0.0000    -0.000    -0.000    -0.000  0.3319  0.0000  0.9433
              Bcc     0.5771   -41.756   -14.899   -13.928 -0.6670  0.7071  0.2347
 
              Baa    -0.0961     6.953     2.481     2.319  0.5520  0.6718  0.4939
     4 O(17)  Bbb     0.0258    -1.870    -0.667    -0.624  0.0125 -0.5989  0.8007
              Bcc     0.0703    -5.084    -1.814    -1.696  0.8338 -0.4358 -0.3390
 
              Baa    -0.0706     5.107     1.822     1.704  0.1312 -0.1744  0.9759
     5 O(17)  Bbb    -0.0058     0.419     0.149     0.140  0.6300  0.7747  0.0538
              Bcc     0.0764    -5.526    -1.972    -1.843  0.7654 -0.6078 -0.2115
 
              Baa    -0.5771    41.756    14.899    13.928 -0.6670  0.7071 -0.2347
     6 O(17)  Bbb     0.0000    -0.000    -0.000    -0.000 -0.3319  0.0000  0.9433
              Bcc     0.5771   -41.756   -14.899   -13.928  0.6670  0.7071  0.2347
 
              Baa    -0.0961     6.953     2.481     2.319 -0.5520  0.6718  0.4939
     7 O(17)  Bbb     0.0258    -1.869    -0.667    -0.624 -0.0125 -0.5989  0.8007
              Bcc     0.0703    -5.084    -1.814    -1.696  0.8338  0.4358  0.3390
 
              Baa    -0.0703     5.084     1.814     1.696  0.8338  0.4358 -0.3390
     8 O(17)  Bbb    -0.0258     1.870     0.667     0.624  0.0125  0.5989  0.8007
              Bcc     0.0961    -6.953    -2.481    -2.319 -0.5520  0.6718 -0.4939
 
              Baa    -0.0703     5.084     1.814     1.696  0.8338 -0.4358  0.3390
     9 O(17)  Bbb    -0.0258     1.870     0.667     0.624 -0.0125  0.5989  0.8007
              Bcc     0.0961    -6.953    -2.481    -2.319  0.5520  0.6718 -0.4939
 
              Baa    -0.0706     5.107     1.822     1.704 -0.1312 -0.1744  0.9759
    10 O(17)  Bbb    -0.0058     0.419     0.149     0.140 -0.6300  0.7747  0.0538
              Bcc     0.0764    -5.526    -1.972    -1.843  0.7655  0.6077  0.2115
 
              Baa    -0.0764     5.526     1.972     1.843  0.7655  0.6077 -0.2115
    11 O(17)  Bbb     0.0058    -0.419    -0.149    -0.140 -0.6300  0.7747 -0.0538
              Bcc     0.0706    -5.107    -1.822    -1.704  0.1312  0.1744  0.9759
 
              Baa    -0.0764     5.526     1.972     1.843  0.7654 -0.6078  0.2115
    12 O(17)  Bbb     0.0058    -0.419    -0.149    -0.140  0.6300  0.7747 -0.0538
              Bcc     0.0706    -5.107    -1.822    -1.704 -0.1312  0.1744  0.9759
 
              Baa    -0.0346    -1.336    -0.477    -0.446  0.9266 -0.2554  0.2760
    13 N(14)  Bbb    -0.0012    -0.045    -0.016    -0.015  0.0297  0.7813  0.6235
              Bcc     0.0358     1.381     0.493     0.461 -0.3749 -0.5695  0.7315
 
              Baa    -0.0346    -1.336    -0.477    -0.446  0.9266  0.2554 -0.2760
    14 N(14)  Bbb    -0.0012    -0.045    -0.016    -0.015 -0.0297  0.7813  0.6235
              Bcc     0.0358     1.381     0.493     0.461  0.3749 -0.5695  0.7315
 
              Baa    -0.0358    -1.381    -0.493    -0.461 -0.3749  0.5695  0.7315
    15 N(14)  Bbb     0.0012     0.045     0.016     0.015 -0.0296  0.7813 -0.6234
              Bcc     0.0346     1.336     0.477     0.446  0.9266  0.2554  0.2760
 
              Baa    -0.0358    -1.381    -0.493    -0.461  0.3749  0.5695  0.7315
    16 N(14)  Bbb     0.0012     0.045     0.016     0.015  0.0296  0.7813 -0.6234
              Bcc     0.0346     1.336     0.477     0.446  0.9266 -0.2554 -0.2760
 
              Baa    -0.0215    -2.885    -1.030    -0.962  0.8390  0.2031  0.5048
    17 C(13)  Bbb     0.0002     0.027     0.010     0.009 -0.3616  0.9013  0.2384
              Bcc     0.0213     2.858     1.020     0.953 -0.4066 -0.3826  0.8296
 
              Baa    -0.0092    -1.240    -0.442    -0.414  0.8645 -0.5003  0.0489
    18 C(13)  Bbb     0.0000     0.001     0.000     0.000  0.3448  0.6610  0.6665
              Bcc     0.0092     1.239     0.442     0.413 -0.3658 -0.5593  0.7439
 
              Baa    -0.0088    -1.184    -0.422    -0.395  0.6877  0.7086  0.1578
    19 C(13)  Bbb    -0.0014    -0.188    -0.067    -0.063  0.2314 -0.4200  0.8775
              Bcc     0.0102     1.372     0.490     0.458  0.6881 -0.5670 -0.4528
 
              Baa    -0.0094    -1.257    -0.448    -0.419  0.8304 -0.5382 -0.1439
    20 C(13)  Bbb     0.0007     0.093     0.033     0.031  0.5319  0.8428 -0.0828
              Bcc     0.0087     1.164     0.415     0.388  0.1658 -0.0078  0.9861
 
              Baa    -0.0186    -2.495    -0.890    -0.832  0.6805  0.6717 -0.2930
    21 C(13)  Bbb    -0.0037    -0.497    -0.177    -0.166 -0.6905  0.7216  0.0505
              Bcc     0.0223     2.992     1.068     0.998  0.2453  0.1679  0.9548
 
              Baa    -0.0219    -2.935    -1.047    -0.979  0.7814 -0.5994 -0.1735
    22 C(13)  Bbb    -0.0164    -2.197    -0.784    -0.733 -0.2753 -0.5806  0.7662
              Bcc     0.0382     5.132     1.831     1.712  0.5600  0.5510  0.6187
 
              Baa    -0.0215    -2.885    -1.030    -0.962  0.8390 -0.2031 -0.5048
    23 C(13)  Bbb     0.0002     0.027     0.010     0.009  0.3616  0.9013  0.2384
              Bcc     0.0213     2.858     1.020     0.953  0.4066 -0.3826  0.8296
 
              Baa    -0.0186    -2.495    -0.890    -0.832  0.6805 -0.6717  0.2930
    24 C(13)  Bbb    -0.0037    -0.497    -0.177    -0.166  0.6905  0.7216  0.0505
              Bcc     0.0223     2.992     1.068     0.998 -0.2454  0.1679  0.9548
 
              Baa    -0.0219    -2.935    -1.047    -0.979  0.7814  0.5994  0.1735
    25 C(13)  Bbb    -0.0164    -2.197    -0.784    -0.733  0.2753 -0.5806  0.7662
              Bcc     0.0382     5.132     1.831     1.712 -0.5600  0.5510  0.6187
 
              Baa    -0.0213    -2.858    -1.020    -0.953 -0.4066  0.3826  0.8296
    26 C(13)  Bbb    -0.0002    -0.027    -0.010    -0.009  0.3616  0.9013 -0.2384
              Bcc     0.0215     2.885     1.030     0.962  0.8390 -0.2031  0.5048
 
              Baa    -0.0223    -2.992    -1.068    -0.998  0.2454 -0.1679  0.9548
    27 C(13)  Bbb     0.0037     0.498     0.178     0.166  0.6905  0.7216 -0.0505
              Bcc     0.0186     2.495     0.890     0.832  0.6805 -0.6717 -0.2930
 
              Baa    -0.0213    -2.858    -1.020    -0.953  0.4066  0.3826  0.8296
    28 C(13)  Bbb    -0.0002    -0.027    -0.010    -0.009 -0.3616  0.9013 -0.2384
              Bcc     0.0215     2.885     1.030     0.962  0.8390  0.2031 -0.5048
 
              Baa    -0.0223    -2.992    -1.068    -0.998 -0.2454 -0.1679  0.9548
    29 C(13)  Bbb     0.0037     0.498     0.178     0.166 -0.6905  0.7216 -0.0505
              Bcc     0.0186     2.495     0.890     0.832  0.6805  0.6717  0.2930
 
              Baa    -0.0382    -5.132    -1.831    -1.712  0.5600 -0.5510  0.6187
    30 C(13)  Bbb     0.0164     2.197     0.784     0.733 -0.2753  0.5806  0.7662
              Bcc     0.0219     2.935     1.047     0.979  0.7814  0.5994 -0.1735
 
              Baa    -0.0382    -5.132    -1.831    -1.712 -0.5600 -0.5510  0.6187
    31 C(13)  Bbb     0.0164     2.197     0.784     0.733  0.2753  0.5806  0.7662
              Bcc     0.0219     2.935     1.047     0.979  0.7814 -0.5994  0.1735
 
              Baa    -0.0092    -1.240    -0.442    -0.414  0.8645  0.5003 -0.0490
    32 C(13)  Bbb     0.0000     0.001     0.000     0.000 -0.3448  0.6610  0.6665
              Bcc     0.0092     1.239     0.442     0.413  0.3658 -0.5593  0.7439
 
              Baa    -0.0094    -1.257    -0.448    -0.419  0.8304  0.5382  0.1439
    33 C(13)  Bbb     0.0007     0.093     0.033     0.031 -0.5319  0.8428 -0.0828
              Bcc     0.0087     1.163     0.415     0.388 -0.1658 -0.0078  0.9861
 
              Baa    -0.0092    -1.239    -0.442    -0.413 -0.3658  0.5593  0.7439
    34 C(13)  Bbb    -0.0000    -0.001    -0.000    -0.000  0.3448 -0.6610  0.6665
              Bcc     0.0092     1.240     0.442     0.413  0.8645  0.5003  0.0490
 
              Baa    -0.0087    -1.163    -0.415    -0.388  0.1658  0.0077  0.9861
    35 C(13)  Bbb    -0.0007    -0.093    -0.033    -0.031 -0.5318  0.8428  0.0828
              Bcc     0.0094     1.257     0.448     0.419  0.8305  0.5382 -0.1438
 
              Baa    -0.0092    -1.239    -0.442    -0.413  0.3658  0.5593  0.7439
    36 C(13)  Bbb    -0.0000    -0.001    -0.000    -0.000 -0.3448 -0.6610  0.6665
              Bcc     0.0092     1.240     0.442     0.414  0.8645 -0.5003 -0.0490
 
              Baa    -0.0087    -1.163    -0.415    -0.388 -0.1658  0.0077  0.9861
    37 C(13)  Bbb    -0.0007    -0.093    -0.033    -0.031  0.5318  0.8428  0.0828
              Bcc     0.0094     1.257     0.448     0.419  0.8305 -0.5382  0.1438
 
              Baa    -0.0088    -1.184    -0.422    -0.395 -0.6877  0.7086  0.1578
    38 C(13)  Bbb    -0.0014    -0.188    -0.067    -0.063 -0.2314 -0.4200  0.8775
              Bcc     0.0102     1.372     0.490     0.458  0.6881  0.5670  0.4528
 
              Baa    -0.0102    -1.372    -0.490    -0.458  0.6881  0.5669 -0.4529
    39 C(13)  Bbb     0.0014     0.188     0.067     0.063  0.2314  0.4200  0.8775
              Bcc     0.0088     1.184     0.422     0.395 -0.6877  0.7086 -0.1578
 
              Baa    -0.0102    -1.372    -0.490    -0.458  0.6881 -0.5669  0.4529
    40 C(13)  Bbb     0.0014     0.188     0.067     0.063 -0.2314  0.4200  0.8775
              Bcc     0.0088     1.184     0.422     0.395  0.6877  0.7086 -0.1578
 
              Baa    -0.0267   -14.252    -5.085    -4.754  0.8282 -0.3613  0.4283
    41 H(1)   Bbb    -0.0038    -2.046    -0.730    -0.683 -0.0017  0.7627  0.6467
              Bcc     0.0305    16.298     5.816     5.436 -0.5604 -0.5364  0.6311
 
              Baa    -0.0033    -1.776    -0.634    -0.592  0.8902 -0.2609  0.3735
    42 H(1)   Bbb    -0.0006    -0.346    -0.124    -0.115  0.0959  0.9087  0.4062
              Bcc     0.0040     2.122     0.757     0.708 -0.4454 -0.3258  0.8340
 
              Baa    -0.0022    -1.163    -0.415    -0.388  0.9013  0.4296  0.0556
    43 H(1)   Bbb    -0.0011    -0.605    -0.216    -0.202 -0.4330  0.8976  0.0829
              Bcc     0.0033     1.768     0.631     0.590 -0.0143 -0.0988  0.9950
 
              Baa    -0.0031    -1.651    -0.589    -0.551  0.9460  0.1516 -0.2865
    44 H(1)   Bbb    -0.0021    -1.102    -0.393    -0.367 -0.1971  0.9707 -0.1373
              Bcc     0.0052     2.753     0.982     0.918  0.2573  0.1863  0.9482
 
              Baa    -0.0267   -14.252    -5.085    -4.754  0.8282  0.3613 -0.4283
    45 H(1)   Bbb    -0.0038    -2.046    -0.730    -0.683  0.0017  0.7627  0.6467
              Bcc     0.0305    16.298     5.816     5.436  0.5604 -0.5364  0.6311
 
              Baa    -0.0305   -16.298    -5.816    -5.436 -0.5604  0.5364  0.6311
    46 H(1)   Bbb     0.0038     2.047     0.730     0.683  0.0017  0.7627 -0.6467
              Bcc     0.0267    14.252     5.085     4.754  0.8282  0.3613  0.4283
 
              Baa    -0.0305   -16.298    -5.816    -5.436  0.5604  0.5364  0.6311
    47 H(1)   Bbb     0.0038     2.047     0.730     0.683 -0.0017  0.7627 -0.6467
              Bcc     0.0267    14.252     5.085     4.754  0.8282 -0.3613 -0.4283
 
              Baa    -0.0033    -1.776    -0.634    -0.592  0.8902  0.2609 -0.3735
    48 H(1)   Bbb    -0.0006    -0.346    -0.124    -0.115 -0.0959  0.9087  0.4062
              Bcc     0.0040     2.122     0.757     0.708  0.4454 -0.3258  0.8340
 
              Baa    -0.0031    -1.651    -0.589    -0.551  0.9460 -0.1516  0.2865
    49 H(1)   Bbb    -0.0021    -1.102    -0.393    -0.367  0.1971  0.9707 -0.1373
              Bcc     0.0052     2.753     0.982     0.918 -0.2573  0.1863  0.9482
 
              Baa    -0.0040    -2.122    -0.757    -0.708 -0.4454  0.3258  0.8340
    50 H(1)   Bbb     0.0006     0.346     0.124     0.115 -0.0958  0.9087 -0.4062
              Bcc     0.0033     1.776     0.634     0.592  0.8902  0.2608  0.3735
 
              Baa    -0.0052    -2.753    -0.982    -0.918  0.2573 -0.1863  0.9482
    51 H(1)   Bbb     0.0021     1.102     0.393     0.367  0.1971  0.9707  0.1373
              Bcc     0.0031     1.651     0.589     0.551  0.9460 -0.1516 -0.2865
 
              Baa    -0.0040    -2.122    -0.757    -0.708  0.4454  0.3258  0.8340
    52 H(1)   Bbb     0.0006     0.346     0.124     0.115  0.0958  0.9087 -0.4062
              Bcc     0.0033     1.776     0.634     0.592  0.8902 -0.2608 -0.3735
 
              Baa    -0.0052    -2.753    -0.982    -0.918 -0.2573 -0.1863  0.9482
    53 H(1)   Bbb     0.0021     1.102     0.393     0.367 -0.1971  0.9707  0.1373
              Bcc     0.0031     1.651     0.589     0.551  0.9460  0.1516  0.2865
 
              Baa    -0.0022    -1.163    -0.415    -0.388  0.9013 -0.4296 -0.0556
    54 H(1)   Bbb    -0.0011    -0.605    -0.216    -0.202  0.4330  0.8976  0.0829
              Bcc     0.0033     1.768     0.631     0.590  0.0143 -0.0988  0.9950
 
              Baa    -0.0033    -1.768    -0.631    -0.590 -0.0143  0.0988  0.9950
    55 H(1)   Bbb     0.0011     0.605     0.216     0.202  0.4330  0.8976 -0.0829
              Bcc     0.0022     1.163     0.415     0.388  0.9013 -0.4296  0.0556
 
              Baa    -0.0033    -1.768    -0.631    -0.590  0.0143  0.0988  0.9950
    56 H(1)   Bbb     0.0011     0.605     0.216     0.202 -0.4330  0.8976 -0.0829
              Bcc     0.0022     1.163     0.415     0.388  0.9013  0.4296 -0.0556
 

 ---------------------------------------------------------------------------------

 1\1\GINC-CRUSHER-N022\Stability\UPBE1PBE\Gen\C24H16Mn2N4O10\ROOT\29-No
 v-2020\0\\# stable=opt upbe1pbe/gen geom=allcheck pseudo=read guess=re
 ad\\JAVYEK\\0,1\Mn,0,-1.357267,0.000002,0.\Mn,0,1.357267,-0.000002,0.\
 O,0,0.000002,1.193234,0.\O,0,-2.683328,-1.372184,-0.300979\O,0,-3.9034
 25,-2.39661,-1.895904\O,0,-0.000002,-1.193234,0.\O,0,-2.683325,1.37219
 1,0.300978\O,0,2.683325,-1.372191,0.300978\O,0,2.683328,1.372184,-0.30
 0979\O,0,-3.903405,2.396633,1.895905\O,0,3.903405,-2.396633,1.895905\O
 ,0,3.903425,2.39661,-1.895904\N,0,-1.646571,0.291441,-1.963043\N,0,-1.
 646572,-0.291435,1.963042\N,0,1.646572,0.291435,1.963042\N,0,1.646571,
 -0.291441,-1.963043\C,0,-1.125068,1.286241,-2.685326\C,0,-1.483837,1.4
 52879,-4.016274\C,0,-2.399786,0.570815,-4.587954\C,0,-2.947316,-0.4441
 48,-3.811365\C,0,-2.551495,-0.543983,-2.486683\C,0,-3.12053,-1.550852,
 -1.513903\C,0,-1.12507,-1.286235,2.685327\C,0,-2.551491,0.543994,2.486
 683\C,0,-3.12053,1.550858,1.5139\C,0,1.12507,1.286235,2.685327\C,0,2.5
 51491,-0.543994,2.486683\C,0,1.125068,-1.286241,-2.685326\C,0,2.551495
 ,0.543983,-2.486683\C,0,3.12053,-1.550858,1.5139\C,0,3.12053,1.550852,
 -1.513903\C,0,-1.483836,-1.452869,4.016276\C,0,-2.94731,0.444163,3.811
 365\C,0,1.483836,1.452869,4.016276\C,0,2.94731,-0.444163,3.811365\C,0,
 1.483837,-1.452879,-4.016274\C,0,2.947316,0.444148,-3.811365\C,0,-2.39
 9781,-0.5708,4.587956\C,0,2.399781,0.5708,4.587956\C,0,2.399786,-0.570
 815,-4.587954\H,0,-0.427156,1.930146,-2.159159\H,0,-1.053571,2.268209,
 -4.587267\H,0,-2.693156,0.686118,-5.627322\H,0,-3.680707,-1.153065,-4.
 180184\H,0,-0.427161,-1.930143,2.15916\H,0,0.427161,1.930143,2.15916\H
 ,0,0.427156,-1.930146,-2.159159\H,0,-1.053572,-2.268198,4.58727\H,0,-3
 .680699,1.153082,4.180185\H,0,1.053572,2.268198,4.58727\H,0,3.680699,-
 1.153082,4.180185\H,0,1.053571,-2.268209,-4.587267\H,0,3.680707,1.1530
 65,-4.180184\H,0,-2.69315,-0.6861,5.627325\H,0,2.69315,0.6861,5.627325
 \H,0,2.693156,-0.686118,-5.627322\\Version=EM64L-G09RevA.02\HF=-2102.2
 584196\S2=3.089381\S2-1=0.\S2A=9.337569\RMSD=4.166e-09\Dipole=-0.00000
 02,-0.0000006,0.0000007\Quadrupole=-44.381579,-27.0649682,71.4465472,0
 .0000034,-0.0000037,0.0000008\PG=C02 [X(C24H16Mn2N4O10)]\\@


 TRUTH, IN SCIENCE, CAN BE DEFINED AS THE WORKING HYPOTHESIS 
 BEST FITTED TO OPEN THE WAY TO THE NEXT BETTER ONE.

                              -- KONRAD LORENZ
 Job cpu time:  0 days 13 hours 46 minutes 49.9 seconds.
 File lengths (MBytes):  RWF=   1098 Int=      0 D2E=      0 Chk=    110 Scr=      1
 Normal termination of Gaussian 09 at Sun Nov 29 18:58:58 2020.
