 Entering Gaussian System, Link 0=g09
 Input=antifer_opt.com
 Output=antifer_opt.out
 Initial command:
 /home/support/apps/apps/gaussian/intel/15.0.6/g09/l1.exe /tmp/Gau-45296.inp -scrdir=/tmp/
 Entering Link 1 = /home/support/apps/apps/gaussian/intel/15.0.6/g09/l1.exe PID=     45297.
  
 Copyright (c) 1988,1990,1992,1993,1995,1998,2003,2009, Gaussian, Inc.
                  All Rights Reserved.
  
 This is part of the Gaussian(R) 09 program.  It is based on
 the Gaussian(R) 03 system (copyright 2003, Gaussian, Inc.),
 the Gaussian(R) 98 system (copyright 1998, Gaussian, Inc.),
 the Gaussian(R) 94 system (copyright 1995, Gaussian, Inc.),
 the Gaussian 92(TM) system (copyright 1992, Gaussian, Inc.),
 the Gaussian 90(TM) system (copyright 1990, Gaussian, Inc.),
 the Gaussian 88(TM) system (copyright 1988, Gaussian, Inc.),
 the Gaussian 86(TM) system (copyright 1986, Carnegie Mellon
 University), and the Gaussian 82(TM) system (copyright 1983,
 Carnegie Mellon University). Gaussian is a federally registered
 trademark of Gaussian, Inc.
  
 This software contains proprietary and confidential information,
 including trade secrets, belonging to Gaussian, Inc.
  
 This software is provided under written license and may be
 used, copied, transmitted, or stored only in accord with that
 written license.
  
 The following legend is applicable only to US Government
 contracts under FAR:
  
                    RESTRICTED RIGHTS LEGEND
  
 Use, reproduction and disclosure by the US Government is
 subject to restrictions as set forth in subparagraphs (a)
 and (c) of the Commercial Computer Software - Restricted
 Rights clause in FAR 52.227-19.
  
 Gaussian, Inc.
 340 Quinnipiac St., Bldg. 40, Wallingford CT 06492
  
  
 ---------------------------------------------------------------
 Warning -- This program may not be used in any manner that
 competes with the business of Gaussian, Inc. or will provide
 assistance to any competitor of Gaussian, Inc.  The licensee
 of this program is prohibited from giving any competitor of
 Gaussian, Inc. access to this program.  By using this program,
 the user acknowledges that Gaussian, Inc. is engaged in the
 business of creating and licensing software in the field of
 computational chemistry and represents and warrants to the
 licensee that it is not a competitor of Gaussian, Inc. and that
 it will not use this program in any manner prohibited above.
 ---------------------------------------------------------------
  

 Cite this work as:
 Gaussian 09, Revision A.02,
 M. J. Frisch, G. W. Trucks, H. B. Schlegel, G. E. Scuseria, 
 M. A. Robb, J. R. Cheeseman, G. Scalmani, V. Barone, B. Mennucci, 
 G. A. Petersson, H. Nakatsuji, M. Caricato, X. Li, H. P. Hratchian, 
 A. F. Izmaylov, J. Bloino, G. Zheng, J. L. Sonnenberg, M. Hada, 
 M. Ehara, K. Toyota, R. Fukuda, J. Hasegawa, M. Ishida, T. Nakajima, 
 Y. Honda, O. Kitao, H. Nakai, T. Vreven, J. A. Montgomery, Jr., 
 J. E. Peralta, F. Ogliaro, M. Bearpark, J. J. Heyd, E. Brothers, 
 K. N. Kudin, V. N. Staroverov, R. Kobayashi, J. Normand, 
 K. Raghavachari, A. Rendell, J. C. Burant, S. S. Iyengar, J. Tomasi, 
 M. Cossi, N. Rega, J. M. Millam, M. Klene, J. E. Knox, J. B. Cross, 
 V. Bakken, C. Adamo, J. Jaramillo, R. Gomperts, R. E. Stratmann, 
 O. Yazyev, A. J. Austin, R. Cammi, C. Pomelli, J. W. Ochterski, 
 R. L. Martin, K. Morokuma, V. G. Zakrzewski, G. A. Voth, 
 P. Salvador, J. J. Dannenberg, S. Dapprich, A. D. Daniels, 
 O. Farkas, J. B. Foresman, J. V. Ortiz, J. Cioslowski, 
 and D. J. Fox, Gaussian, Inc., Wallingford CT, 2009.
 
 ******************************************
 Gaussian 09:  EM64L-G09RevA.02 11-Jun-2009
                 1-Dec-2020 
 ******************************************
 %nprocshared=16
 Will use up to   16 processors via shared memory.
 %mem=50000MB
 %chk=antiferro.chk
 ---------------------------------------------------------
 # opt upbe1pbe/gen geom=(allcheck) pseudo=read guess=read
 ---------------------------------------------------------
 1/14=-1,18=20,19=15,26=3,29=7,38=1/1,3;
 2/9=110,12=2,40=1/2;
 3/5=7,11=2,14=-4,16=1,17=8,25=1,30=1,71=1,74=-13,116=2/1,2,3;
 4/5=1/1;
 5/5=2,38=6/2;
 6/7=2,8=2,9=2,10=2,28=1/1;
 7//1,2,3,16;
 1/14=-1,18=20,19=15/3(2);
 2/9=110/2;
 99//99;
 2/9=110/2;
 3/5=7,6=1,11=2,14=-2,16=1,17=8,25=1,30=1,71=1,74=-13,82=7,116=2/1,2,3;
 4/5=5,16=3/1;
 5/5=2,38=5/2;
 7//1,2,3,16;
 1/14=-1,18=20,19=15/3(-5);
 2/9=110/2;
 6/7=2,8=2,9=2,10=2,19=2,28=1/1;
 99/9=1/99;
 ------
 JAVYEK
 ------
 Redundant internal coordinates taken from checkpoint file:
 antiferro.chk
 Charge =  0 Multiplicity = 1
 Mn,0,0.0000001673,1.3609484264,-0.0000004185
 Mn,0,-0.0000001673,-1.3609484264,-0.0000004186
 O,0,-1.1771767547,0.0000000373,-0.000000529
 O,0,1.3789345189,2.6796036018,0.2974572302
 O,0,2.4062652865,3.9021542317,1.8885741349
 O,0,1.1771767547,-0.0000000373,-0.000000529
 O,0,-1.3789344091,2.6796035964,-0.2974571081
 O,0,1.3789344091,-2.6796035964,-0.2974571084
 O,0,-1.3789345189,-2.6796036019,0.29745723
 O,0,-2.4062588803,3.9021635015,-1.88857114
 O,0,2.4062588803,-3.9021635013,-1.8885711404
 O,0,-2.4062652865,-3.9021542319,1.8885741345
 N,0,-0.2896076212,1.6551905382,1.9609164169
 N,0,0.2896082071,1.6551923248,-1.9609171269
 N,0,-0.2896082072,-1.6551923246,-1.960917127
 N,0,0.2896076211,-1.6551905384,1.9609164167
 C,0,-1.2835628454,1.1360942125,2.6861825667
 C,0,-1.4471795754,1.496443184,4.0171161371
 C,0,-0.5626630414,2.4114669564,4.5863428808
 C,0,0.4522440152,2.9556658641,3.8073866798
 C,0,0.5489919932,2.558074405,2.4830210675
 C,0,1.55793724,3.1208395398,1.5090262439
 C,0,1.283563017,1.136096705,-2.6861837738
 C,0,-0.5489908441,2.5580773378,-2.483020551
 C,0,-1.5579386714,3.1208386983,-1.5090262801
 C,0,-1.2835630171,-1.1360967047,-2.6861837739
 C,0,0.5489908441,-2.5580773376,-2.4830205513
 C,0,1.2835628454,-1.1360942128,2.6861825666
 C,0,-0.5489919932,-2.5580744053,2.4830210672
 C,0,1.5579386714,-3.1208386982,-1.5090262804
 C,0,-1.55793724,-3.1208395399,1.5090262436
 C,0,1.4471805571,1.4964479765,-4.0171165282
 C,0,-0.4522421401,2.955671393,-3.8073853954
 C,0,-1.4471805571,-1.4964479761,-4.0171165284
 C,0,0.4522421401,-2.9556713926,-3.8073853957
 C,0,1.4471795754,-1.4964431844,4.0171161369
 C,0,-0.4522440152,-2.9556658644,3.8073866795
 C,0,0.56266511,2.411473528,-4.5863421111
 C,0,-0.5626651101,-2.4114735275,-4.5863421113
 C,0,0.5626630414,-2.4114669568,4.5863428806
 H,0,-1.9299664705,0.4381534073,2.1633921567
 H,0,-2.2620736619,1.0678524408,4.5899890917
 H,0,-0.67560595,2.7061637224,5.6255883592
 H,0,1.1638729499,3.6873945241,4.1742935827
 H,0,1.9299661979,0.4381550269,-2.1633946223
 H,0,-1.9299661979,-0.4381550267,-2.1633946224
 H,0,1.9299664705,-0.4381534075,2.1633921566
 H,0,2.2620746053,1.0678578323,-4.5899898448
 H,0,-1.1638711173,3.6874005605,-4.1742915094
 H,0,-2.2620746053,-1.0678578318,-4.5899898449
 H,0,1.1638711173,-3.6874005601,-4.1742915098
 H,0,2.2620736619,-1.0678524412,4.5899890916
 H,0,-1.1638729499,-3.6873945246,4.1742935823
 H,0,0.6756085932,2.7061720892,-5.6255870685
 H,0,-0.6756085932,-2.7061720886,-5.6255870688
 H,0,0.67560595,-2.7061637229,5.6255883589
 Recover connectivity data from disk.

 GradGradGradGradGradGradGradGradGradGradGradGradGradGradGradGradGradGrad
 Berny optimization.
 Initialization pass.
                           ----------------------------
                           !    Initial Parameters    !
                           ! (Angstroms and Degrees)  !
 --------------------------                            --------------------------
 ! Name  Definition              Value          Derivative Info.                !
 --------------------------------------------------------------------------------
 ! R1    R(1,3)                  1.7994         estimate D2E/DX2                !
 ! R2    R(1,4)                  1.931          estimate D2E/DX2                !
 ! R3    R(1,6)                  1.7994         estimate D2E/DX2                !
 ! R4    R(1,7)                  1.931          estimate D2E/DX2                !
 ! R5    R(1,13)                 2.0039         estimate D2E/DX2                !
 ! R6    R(1,14)                 2.0039         estimate D2E/DX2                !
 ! R7    R(2,3)                  1.7994         estimate D2E/DX2                !
 ! R8    R(2,6)                  1.7994         estimate D2E/DX2                !
 ! R9    R(2,8)                  1.931          estimate D2E/DX2                !
 ! R10   R(2,9)                  1.931          estimate D2E/DX2                !
 ! R11   R(2,15)                 2.0039         estimate D2E/DX2                !
 ! R12   R(2,16)                 2.0039         estimate D2E/DX2                !
 ! R13   R(4,22)                 1.3018         estimate D2E/DX2                !
 ! R14   R(5,22)                 1.2142         estimate D2E/DX2                !
 ! R15   R(7,25)                 1.3018         estimate D2E/DX2                !
 ! R16   R(8,30)                 1.3018         estimate D2E/DX2                !
 ! R17   R(9,31)                 1.3018         estimate D2E/DX2                !
 ! R18   R(10,25)                1.2142         estimate D2E/DX2                !
 ! R19   R(11,30)                1.2142         estimate D2E/DX2                !
 ! R20   R(12,31)                1.2142         estimate D2E/DX2                !
 ! R21   R(13,17)                1.3354         estimate D2E/DX2                !
 ! R22   R(13,21)                1.3383         estimate D2E/DX2                !
 ! R23   R(14,23)                1.3354         estimate D2E/DX2                !
 ! R24   R(14,24)                1.3383         estimate D2E/DX2                !
 ! R25   R(15,26)                1.3354         estimate D2E/DX2                !
 ! R26   R(15,27)                1.3383         estimate D2E/DX2                !
 ! R27   R(16,28)                1.3354         estimate D2E/DX2                !
 ! R28   R(16,29)                1.3383         estimate D2E/DX2                !
 ! R29   R(17,18)                1.3885         estimate D2E/DX2                !
 ! R30   R(17,41)                1.0855         estimate D2E/DX2                !
 ! R31   R(18,19)                1.3942         estimate D2E/DX2                !
 ! R32   R(18,42)                1.0844         estimate D2E/DX2                !
 ! R33   R(19,20)                1.3903         estimate D2E/DX2                !
 ! R34   R(19,43)                1.0861         estimate D2E/DX2                !
 ! R35   R(20,21)                1.3861         estimate D2E/DX2                !
 ! R36   R(20,44)                1.0846         estimate D2E/DX2                !
 ! R37   R(21,22)                1.5111         estimate D2E/DX2                !
 ! R38   R(23,32)                1.3885         estimate D2E/DX2                !
 ! R39   R(23,45)                1.0855         estimate D2E/DX2                !
 ! R40   R(24,25)                1.5111         estimate D2E/DX2                !
 ! R41   R(24,33)                1.3861         estimate D2E/DX2                !
 ! R42   R(26,34)                1.3885         estimate D2E/DX2                !
 ! R43   R(26,46)                1.0855         estimate D2E/DX2                !
 ! R44   R(27,30)                1.5111         estimate D2E/DX2                !
 ! R45   R(27,35)                1.3861         estimate D2E/DX2                !
 ! R46   R(28,36)                1.3885         estimate D2E/DX2                !
 ! R47   R(28,47)                1.0855         estimate D2E/DX2                !
 ! R48   R(29,31)                1.5111         estimate D2E/DX2                !
 ! R49   R(29,37)                1.3861         estimate D2E/DX2                !
 ! R50   R(32,38)                1.3942         estimate D2E/DX2                !
 ! R51   R(32,48)                1.0844         estimate D2E/DX2                !
 ! R52   R(33,38)                1.3903         estimate D2E/DX2                !
 ! R53   R(33,49)                1.0846         estimate D2E/DX2                !
 ! R54   R(34,39)                1.3942         estimate D2E/DX2                !
 ! R55   R(34,50)                1.0844         estimate D2E/DX2                !
 ! R56   R(35,39)                1.3903         estimate D2E/DX2                !
 ! R57   R(35,51)                1.0846         estimate D2E/DX2                !
 ! R58   R(36,40)                1.3942         estimate D2E/DX2                !
 ! R59   R(36,52)                1.0844         estimate D2E/DX2                !
 ! R60   R(37,40)                1.3903         estimate D2E/DX2                !
 ! R61   R(37,53)                1.0846         estimate D2E/DX2                !
 ! R62   R(38,54)                1.0861         estimate D2E/DX2                !
 ! R63   R(39,55)                1.0861         estimate D2E/DX2                !
 ! R64   R(40,56)                1.0861         estimate D2E/DX2                !
 ! A1    A(3,1,4)              169.6232         estimate D2E/DX2                !
 ! A2    A(3,1,6)               81.7175         estimate D2E/DX2                !
 ! A3    A(3,1,7)               92.827          estimate D2E/DX2                !
 ! A4    A(3,1,13)              90.9459         estimate D2E/DX2                !
 ! A5    A(3,1,14)             101.8647         estimate D2E/DX2                !
 ! A6    A(4,1,6)               92.827          estimate D2E/DX2                !
 ! A7    A(4,1,7)               93.8611         estimate D2E/DX2                !
 ! A8    A(4,1,13)              81.5002         estimate D2E/DX2                !
 ! A9    A(4,1,14)              86.977          estimate D2E/DX2                !
 ! A10   A(6,1,7)              169.6232         estimate D2E/DX2                !
 ! A11   A(6,1,13)             101.8646         estimate D2E/DX2                !
 ! A12   A(6,1,14)              90.946          estimate D2E/DX2                !
 ! A13   A(7,1,13)              86.977          estimate D2E/DX2                !
 ! A14   A(7,1,14)              81.5002         estimate D2E/DX2                !
 ! A15   A(13,1,14)            163.1129         estimate D2E/DX2                !
 ! A16   A(3,2,6)               81.7175         estimate D2E/DX2                !
 ! A17   A(3,2,8)              169.6232         estimate D2E/DX2                !
 ! A18   A(3,2,9)               92.827          estimate D2E/DX2                !
 ! A19   A(3,2,15)              90.946          estimate D2E/DX2                !
 ! A20   A(3,2,16)             101.8646         estimate D2E/DX2                !
 ! A21   A(6,2,8)               92.827          estimate D2E/DX2                !
 ! A22   A(6,2,9)              169.6232         estimate D2E/DX2                !
 ! A23   A(6,2,15)             101.8647         estimate D2E/DX2                !
 ! A24   A(6,2,16)              90.9459         estimate D2E/DX2                !
 ! A25   A(8,2,9)               93.8611         estimate D2E/DX2                !
 ! A26   A(8,2,15)              81.5002         estimate D2E/DX2                !
 ! A27   A(8,2,16)              86.977          estimate D2E/DX2                !
 ! A28   A(9,2,15)              86.977          estimate D2E/DX2                !
 ! A29   A(9,2,16)              81.5002         estimate D2E/DX2                !
 ! A30   A(15,2,16)            163.1129         estimate D2E/DX2                !
 ! A31   A(1,3,2)               98.2825         estimate D2E/DX2                !
 ! A32   A(1,4,22)             118.2307         estimate D2E/DX2                !
 ! A33   A(1,6,2)               98.2825         estimate D2E/DX2                !
 ! A34   A(1,7,25)             118.2307         estimate D2E/DX2                !
 ! A35   A(2,8,30)             118.2307         estimate D2E/DX2                !
 ! A36   A(2,9,31)             118.2307         estimate D2E/DX2                !
 ! A37   A(1,13,17)            125.5862         estimate D2E/DX2                !
 ! A38   A(1,13,21)            112.9706         estimate D2E/DX2                !
 ! A39   A(17,13,21)           121.1145         estimate D2E/DX2                !
 ! A40   A(1,14,23)            125.5862         estimate D2E/DX2                !
 ! A41   A(1,14,24)            112.9706         estimate D2E/DX2                !
 ! A42   A(23,14,24)           121.1145         estimate D2E/DX2                !
 ! A43   A(2,15,26)            125.5862         estimate D2E/DX2                !
 ! A44   A(2,15,27)            112.9706         estimate D2E/DX2                !
 ! A45   A(26,15,27)           121.1145         estimate D2E/DX2                !
 ! A46   A(2,16,28)            125.5862         estimate D2E/DX2                !
 ! A47   A(2,16,29)            112.9706         estimate D2E/DX2                !
 ! A48   A(28,16,29)           121.1145         estimate D2E/DX2                !
 ! A49   A(13,17,18)           120.4901         estimate D2E/DX2                !
 ! A50   A(13,17,41)           115.5685         estimate D2E/DX2                !
 ! A51   A(18,17,41)           123.941          estimate D2E/DX2                !
 ! A52   A(17,18,19)           119.1391         estimate D2E/DX2                !
 ! A53   A(17,18,42)           119.4953         estimate D2E/DX2                !
 ! A54   A(19,18,42)           121.3641         estimate D2E/DX2                !
 ! A55   A(18,19,20)           119.4249         estimate D2E/DX2                !
 ! A56   A(18,19,43)           120.1846         estimate D2E/DX2                !
 ! A57   A(20,19,43)           120.3848         estimate D2E/DX2                !
 ! A58   A(19,20,21)           118.2932         estimate D2E/DX2                !
 ! A59   A(19,20,44)           123.6057         estimate D2E/DX2                !
 ! A60   A(21,20,44)           118.0933         estimate D2E/DX2                !
 ! A61   A(13,21,20)           121.5012         estimate D2E/DX2                !
 ! A62   A(13,21,22)           114.7202         estimate D2E/DX2                !
 ! A63   A(20,21,22)           123.7537         estimate D2E/DX2                !
 ! A64   A(4,22,5)             127.2382         estimate D2E/DX2                !
 ! A65   A(4,22,21)            112.4488         estimate D2E/DX2                !
 ! A66   A(5,22,21)            120.3105         estimate D2E/DX2                !
 ! A67   A(14,23,32)           120.4901         estimate D2E/DX2                !
 ! A68   A(14,23,45)           115.5685         estimate D2E/DX2                !
 ! A69   A(32,23,45)           123.941          estimate D2E/DX2                !
 ! A70   A(14,24,25)           114.7202         estimate D2E/DX2                !
 ! A71   A(14,24,33)           121.5012         estimate D2E/DX2                !
 ! A72   A(25,24,33)           123.7537         estimate D2E/DX2                !
 ! A73   A(7,25,10)            127.2382         estimate D2E/DX2                !
 ! A74   A(7,25,24)            112.4488         estimate D2E/DX2                !
 ! A75   A(10,25,24)           120.3105         estimate D2E/DX2                !
 ! A76   A(15,26,34)           120.4901         estimate D2E/DX2                !
 ! A77   A(15,26,46)           115.5685         estimate D2E/DX2                !
 ! A78   A(34,26,46)           123.941          estimate D2E/DX2                !
 ! A79   A(15,27,30)           114.7202         estimate D2E/DX2                !
 ! A80   A(15,27,35)           121.5012         estimate D2E/DX2                !
 ! A81   A(30,27,35)           123.7537         estimate D2E/DX2                !
 ! A82   A(16,28,36)           120.4901         estimate D2E/DX2                !
 ! A83   A(16,28,47)           115.5685         estimate D2E/DX2                !
 ! A84   A(36,28,47)           123.941          estimate D2E/DX2                !
 ! A85   A(16,29,31)           114.7202         estimate D2E/DX2                !
 ! A86   A(16,29,37)           121.5012         estimate D2E/DX2                !
 ! A87   A(31,29,37)           123.7537         estimate D2E/DX2                !
 ! A88   A(8,30,11)            127.2382         estimate D2E/DX2                !
 ! A89   A(8,30,27)            112.4488         estimate D2E/DX2                !
 ! A90   A(11,30,27)           120.3105         estimate D2E/DX2                !
 ! A91   A(9,31,12)            127.2382         estimate D2E/DX2                !
 ! A92   A(9,31,29)            112.4488         estimate D2E/DX2                !
 ! A93   A(12,31,29)           120.3105         estimate D2E/DX2                !
 ! A94   A(23,32,38)           119.1391         estimate D2E/DX2                !
 ! A95   A(23,32,48)           119.4953         estimate D2E/DX2                !
 ! A96   A(38,32,48)           121.3641         estimate D2E/DX2                !
 ! A97   A(24,33,38)           118.2932         estimate D2E/DX2                !
 ! A98   A(24,33,49)           118.0933         estimate D2E/DX2                !
 ! A99   A(38,33,49)           123.6057         estimate D2E/DX2                !
 ! A100  A(26,34,39)           119.1391         estimate D2E/DX2                !
 ! A101  A(26,34,50)           119.4953         estimate D2E/DX2                !
 ! A102  A(39,34,50)           121.3641         estimate D2E/DX2                !
 ! A103  A(27,35,39)           118.2932         estimate D2E/DX2                !
 ! A104  A(27,35,51)           118.0933         estimate D2E/DX2                !
 ! A105  A(39,35,51)           123.6057         estimate D2E/DX2                !
 ! A106  A(28,36,40)           119.1391         estimate D2E/DX2                !
 ! A107  A(28,36,52)           119.4953         estimate D2E/DX2                !
 ! A108  A(40,36,52)           121.3641         estimate D2E/DX2                !
 ! A109  A(29,37,40)           118.2932         estimate D2E/DX2                !
 ! A110  A(29,37,53)           118.0933         estimate D2E/DX2                !
 ! A111  A(40,37,53)           123.6057         estimate D2E/DX2                !
 ! A112  A(32,38,33)           119.4249         estimate D2E/DX2                !
 ! A113  A(32,38,54)           120.1846         estimate D2E/DX2                !
 ! A114  A(33,38,54)           120.3848         estimate D2E/DX2                !
 ! A115  A(34,39,35)           119.4249         estimate D2E/DX2                !
 ! A116  A(34,39,55)           120.1846         estimate D2E/DX2                !
 ! A117  A(35,39,55)           120.3848         estimate D2E/DX2                !
 ! A118  A(36,40,37)           119.4249         estimate D2E/DX2                !
 ! A119  A(36,40,56)           120.1846         estimate D2E/DX2                !
 ! A120  A(37,40,56)           120.3848         estimate D2E/DX2                !
 ! D1    D(4,1,3,2)            -58.7837         estimate D2E/DX2                !
 ! D2    D(6,1,3,2)              0.0            estimate D2E/DX2                !
 ! D3    D(7,1,3,2)            171.1279         estimate D2E/DX2                !
 ! D4    D(13,1,3,2)          -101.8524         estimate D2E/DX2                !
 ! D5    D(14,1,3,2)            89.2245         estimate D2E/DX2                !
 ! D6    D(3,1,4,22)           -41.4346         estimate D2E/DX2                !
 ! D7    D(6,1,4,22)           -99.3569         estimate D2E/DX2                !
 ! D8    D(7,1,4,22)            88.5819         estimate D2E/DX2                !
 ! D9    D(13,1,4,22)            2.2244         estimate D2E/DX2                !
 ! D10   D(14,1,4,22)          169.8441         estimate D2E/DX2                !
 ! D11   D(3,1,6,2)              0.0            estimate D2E/DX2                !
 ! D12   D(4,1,6,2)            171.1278         estimate D2E/DX2                !
 ! D13   D(7,1,6,2)            -58.7836         estimate D2E/DX2                !
 ! D14   D(13,1,6,2)            89.2244         estimate D2E/DX2                !
 ! D15   D(14,1,6,2)          -101.8525         estimate D2E/DX2                !
 ! D16   D(3,1,7,25)           -99.3568         estimate D2E/DX2                !
 ! D17   D(4,1,7,25)            88.582          estimate D2E/DX2                !
 ! D18   D(6,1,7,25)           -41.4346         estimate D2E/DX2                !
 ! D19   D(13,1,7,25)          169.8443         estimate D2E/DX2                !
 ! D20   D(14,1,7,25)            2.2245         estimate D2E/DX2                !
 ! D21   D(3,1,13,17)          -13.5477         estimate D2E/DX2                !
 ! D22   D(3,1,13,21)          173.0126         estimate D2E/DX2                !
 ! D23   D(4,1,13,17)          173.5964         estimate D2E/DX2                !
 ! D24   D(4,1,13,21)            0.1567         estimate D2E/DX2                !
 ! D25   D(6,1,13,17)          -95.2828         estimate D2E/DX2                !
 ! D26   D(6,1,13,21)           91.2775         estimate D2E/DX2                !
 ! D27   D(7,1,13,17)           79.2335         estimate D2E/DX2                !
 ! D28   D(7,1,13,21)          -94.2062         estimate D2E/DX2                !
 ! D29   D(14,1,13,17)         126.1166         estimate D2E/DX2                !
 ! D30   D(14,1,13,21)         -47.3231         estimate D2E/DX2                !
 ! D31   D(3,1,14,23)          -95.2828         estimate D2E/DX2                !
 ! D32   D(3,1,14,24)           91.2775         estimate D2E/DX2                !
 ! D33   D(4,1,14,23)           79.2336         estimate D2E/DX2                !
 ! D34   D(4,1,14,24)          -94.2061         estimate D2E/DX2                !
 ! D35   D(6,1,14,23)          -13.5477         estimate D2E/DX2                !
 ! D36   D(6,1,14,24)          173.0126         estimate D2E/DX2                !
 ! D37   D(7,1,14,23)          173.5964         estimate D2E/DX2                !
 ! D38   D(7,1,14,24)            0.1568         estimate D2E/DX2                !
 ! D39   D(13,1,14,23)         126.1166         estimate D2E/DX2                !
 ! D40   D(13,1,14,24)         -47.3231         estimate D2E/DX2                !
 ! D41   D(6,2,3,1)              0.0            estimate D2E/DX2                !
 ! D42   D(8,2,3,1)            -58.7836         estimate D2E/DX2                !
 ! D43   D(9,2,3,1)            171.1278         estimate D2E/DX2                !
 ! D44   D(15,2,3,1)          -101.8525         estimate D2E/DX2                !
 ! D45   D(16,2,3,1)            89.2244         estimate D2E/DX2                !
 ! D46   D(3,2,6,1)              0.0            estimate D2E/DX2                !
 ! D47   D(8,2,6,1)            171.1279         estimate D2E/DX2                !
 ! D48   D(9,2,6,1)            -58.7837         estimate D2E/DX2                !
 ! D49   D(15,2,6,1)            89.2245         estimate D2E/DX2                !
 ! D50   D(16,2,6,1)          -101.8524         estimate D2E/DX2                !
 ! D51   D(3,2,8,30)           -41.4346         estimate D2E/DX2                !
 ! D52   D(6,2,8,30)           -99.3568         estimate D2E/DX2                !
 ! D53   D(9,2,8,30)            88.582          estimate D2E/DX2                !
 ! D54   D(15,2,8,30)            2.2245         estimate D2E/DX2                !
 ! D55   D(16,2,8,30)          169.8443         estimate D2E/DX2                !
 ! D56   D(3,2,9,31)           -99.3569         estimate D2E/DX2                !
 ! D57   D(6,2,9,31)           -41.4346         estimate D2E/DX2                !
 ! D58   D(8,2,9,31)            88.5819         estimate D2E/DX2                !
 ! D59   D(15,2,9,31)          169.8441         estimate D2E/DX2                !
 ! D60   D(16,2,9,31)            2.2244         estimate D2E/DX2                !
 ! D61   D(3,2,15,26)          -13.5477         estimate D2E/DX2                !
 ! D62   D(3,2,15,27)          173.0126         estimate D2E/DX2                !
 ! D63   D(6,2,15,26)          -95.2828         estimate D2E/DX2                !
 ! D64   D(6,2,15,27)           91.2775         estimate D2E/DX2                !
 ! D65   D(8,2,15,26)          173.5964         estimate D2E/DX2                !
 ! D66   D(8,2,15,27)            0.1568         estimate D2E/DX2                !
 ! D67   D(9,2,15,26)           79.2336         estimate D2E/DX2                !
 ! D68   D(9,2,15,27)          -94.2061         estimate D2E/DX2                !
 ! D69   D(16,2,15,26)         126.1166         estimate D2E/DX2                !
 ! D70   D(16,2,15,27)         -47.3231         estimate D2E/DX2                !
 ! D71   D(3,2,16,28)          -95.2828         estimate D2E/DX2                !
 ! D72   D(3,2,16,29)           91.2775         estimate D2E/DX2                !
 ! D73   D(6,2,16,28)          -13.5477         estimate D2E/DX2                !
 ! D74   D(6,2,16,29)          173.0126         estimate D2E/DX2                !
 ! D75   D(8,2,16,28)           79.2335         estimate D2E/DX2                !
 ! D76   D(8,2,16,29)          -94.2062         estimate D2E/DX2                !
 ! D77   D(9,2,16,28)          173.5964         estimate D2E/DX2                !
 ! D78   D(9,2,16,29)            0.1567         estimate D2E/DX2                !
 ! D79   D(15,2,16,28)         126.1166         estimate D2E/DX2                !
 ! D80   D(15,2,16,29)         -47.3231         estimate D2E/DX2                !
 ! D81   D(1,4,22,5)           176.7437         estimate D2E/DX2                !
 ! D82   D(1,4,22,21)           -3.8294         estimate D2E/DX2                !
 ! D83   D(1,7,25,10)          176.7445         estimate D2E/DX2                !
 ! D84   D(1,7,25,24)           -3.8296         estimate D2E/DX2                !
 ! D85   D(2,8,30,11)          176.7445         estimate D2E/DX2                !
 ! D86   D(2,8,30,27)           -3.8296         estimate D2E/DX2                !
 ! D87   D(2,9,31,12)          176.7437         estimate D2E/DX2                !
 ! D88   D(2,9,31,29)           -3.8294         estimate D2E/DX2                !
 ! D89   D(1,13,17,18)        -174.7387         estimate D2E/DX2                !
 ! D90   D(1,13,17,41)           5.0159         estimate D2E/DX2                !
 ! D91   D(21,13,17,18)         -1.7962         estimate D2E/DX2                !
 ! D92   D(21,13,17,41)        177.9584         estimate D2E/DX2                !
 ! D93   D(1,13,21,20)         176.1239         estimate D2E/DX2                !
 ! D94   D(1,13,21,22)          -2.1269         estimate D2E/DX2                !
 ! D95   D(17,13,21,20)          2.3542         estimate D2E/DX2                !
 ! D96   D(17,13,21,22)       -175.8966         estimate D2E/DX2                !
 ! D97   D(1,14,23,32)        -174.7386         estimate D2E/DX2                !
 ! D98   D(1,14,23,45)           5.016          estimate D2E/DX2                !
 ! D99   D(24,14,23,32)         -1.7962         estimate D2E/DX2                !
 ! D100  D(24,14,23,45)        177.9584         estimate D2E/DX2                !
 ! D101  D(1,14,24,25)          -2.1271         estimate D2E/DX2                !
 ! D102  D(1,14,24,33)         176.1239         estimate D2E/DX2                !
 ! D103  D(23,14,24,25)       -175.8968         estimate D2E/DX2                !
 ! D104  D(23,14,24,33)          2.3542         estimate D2E/DX2                !
 ! D105  D(2,15,26,34)        -174.7386         estimate D2E/DX2                !
 ! D106  D(2,15,26,46)           5.016          estimate D2E/DX2                !
 ! D107  D(27,15,26,34)         -1.7962         estimate D2E/DX2                !
 ! D108  D(27,15,26,46)        177.9584         estimate D2E/DX2                !
 ! D109  D(2,15,27,30)          -2.1271         estimate D2E/DX2                !
 ! D110  D(2,15,27,35)         176.1239         estimate D2E/DX2                !
 ! D111  D(26,15,27,30)       -175.8968         estimate D2E/DX2                !
 ! D112  D(26,15,27,35)          2.3542         estimate D2E/DX2                !
 ! D113  D(2,16,28,36)        -174.7387         estimate D2E/DX2                !
 ! D114  D(2,16,28,47)           5.0159         estimate D2E/DX2                !
 ! D115  D(29,16,28,36)         -1.7962         estimate D2E/DX2                !
 ! D116  D(29,16,28,47)        177.9584         estimate D2E/DX2                !
 ! D117  D(2,16,29,31)          -2.1269         estimate D2E/DX2                !
 ! D118  D(2,16,29,37)         176.1239         estimate D2E/DX2                !
 ! D119  D(28,16,29,31)       -175.8966         estimate D2E/DX2                !
 ! D120  D(28,16,29,37)          2.3542         estimate D2E/DX2                !
 ! D121  D(13,17,18,19)          0.2179         estimate D2E/DX2                !
 ! D122  D(13,17,18,42)        179.7718         estimate D2E/DX2                !
 ! D123  D(41,17,18,19)       -179.5153         estimate D2E/DX2                !
 ! D124  D(41,17,18,42)          0.0386         estimate D2E/DX2                !
 ! D125  D(17,18,19,20)          0.7953         estimate D2E/DX2                !
 ! D126  D(17,18,19,43)        179.9307         estimate D2E/DX2                !
 ! D127  D(42,18,19,20)       -178.7499         estimate D2E/DX2                !
 ! D128  D(42,18,19,43)          0.3855         estimate D2E/DX2                !
 ! D129  D(18,19,20,21)         -0.2825         estimate D2E/DX2                !
 ! D130  D(18,19,20,44)        178.6812         estimate D2E/DX2                !
 ! D131  D(43,19,20,21)       -179.4161         estimate D2E/DX2                !
 ! D132  D(43,19,20,44)         -0.4524         estimate D2E/DX2                !
 ! D133  D(19,20,21,13)         -1.2798         estimate D2E/DX2                !
 ! D134  D(19,20,21,22)        176.8091         estimate D2E/DX2                !
 ! D135  D(44,20,21,13)        179.6986         estimate D2E/DX2                !
 ! D136  D(44,20,21,22)         -2.2125         estimate D2E/DX2                !
 ! D137  D(13,21,22,4)           3.8681         estimate D2E/DX2                !
 ! D138  D(13,21,22,5)        -176.6605         estimate D2E/DX2                !
 ! D139  D(20,21,22,4)        -174.3382         estimate D2E/DX2                !
 ! D140  D(20,21,22,5)           5.1333         estimate D2E/DX2                !
 ! D141  D(14,23,32,38)          0.2179         estimate D2E/DX2                !
 ! D142  D(14,23,32,48)        179.7718         estimate D2E/DX2                !
 ! D143  D(45,23,32,38)       -179.5152         estimate D2E/DX2                !
 ! D144  D(45,23,32,48)          0.0386         estimate D2E/DX2                !
 ! D145  D(14,24,25,7)           3.8684         estimate D2E/DX2                !
 ! D146  D(14,24,25,10)       -176.6611         estimate D2E/DX2                !
 ! D147  D(33,24,25,7)        -174.338          estimate D2E/DX2                !
 ! D148  D(33,24,25,10)          5.1325         estimate D2E/DX2                !
 ! D149  D(14,24,33,38)         -1.2798         estimate D2E/DX2                !
 ! D150  D(14,24,33,49)        179.6985         estimate D2E/DX2                !
 ! D151  D(25,24,33,38)        176.8093         estimate D2E/DX2                !
 ! D152  D(25,24,33,49)         -2.2123         estimate D2E/DX2                !
 ! D153  D(15,26,34,39)          0.2179         estimate D2E/DX2                !
 ! D154  D(15,26,34,50)        179.7718         estimate D2E/DX2                !
 ! D155  D(46,26,34,39)       -179.5152         estimate D2E/DX2                !
 ! D156  D(46,26,34,50)          0.0386         estimate D2E/DX2                !
 ! D157  D(15,27,30,8)           3.8684         estimate D2E/DX2                !
 ! D158  D(15,27,30,11)       -176.6611         estimate D2E/DX2                !
 ! D159  D(35,27,30,8)        -174.338          estimate D2E/DX2                !
 ! D160  D(35,27,30,11)          5.1325         estimate D2E/DX2                !
 ! D161  D(15,27,35,39)         -1.2798         estimate D2E/DX2                !
 ! D162  D(15,27,35,51)        179.6985         estimate D2E/DX2                !
 ! D163  D(30,27,35,39)        176.8093         estimate D2E/DX2                !
 ! D164  D(30,27,35,51)         -2.2123         estimate D2E/DX2                !
 ! D165  D(16,28,36,40)          0.2179         estimate D2E/DX2                !
 ! D166  D(16,28,36,52)        179.7718         estimate D2E/DX2                !
 ! D167  D(47,28,36,40)       -179.5153         estimate D2E/DX2                !
 ! D168  D(47,28,36,52)          0.0386         estimate D2E/DX2                !
 ! D169  D(16,29,31,9)           3.8681         estimate D2E/DX2                !
 ! D170  D(16,29,31,12)       -176.6605         estimate D2E/DX2                !
 ! D171  D(37,29,31,9)        -174.3382         estimate D2E/DX2                !
 ! D172  D(37,29,31,12)          5.1333         estimate D2E/DX2                !
 ! D173  D(16,29,37,40)         -1.2798         estimate D2E/DX2                !
 ! D174  D(16,29,37,53)        179.6986         estimate D2E/DX2                !
 ! D175  D(31,29,37,40)        176.8091         estimate D2E/DX2                !
 ! D176  D(31,29,37,53)         -2.2125         estimate D2E/DX2                !
 ! D177  D(23,32,38,33)          0.7953         estimate D2E/DX2                !
 ! D178  D(23,32,38,54)        179.9307         estimate D2E/DX2                !
 ! D179  D(48,32,38,33)       -178.7499         estimate D2E/DX2                !
 ! D180  D(48,32,38,54)          0.3855         estimate D2E/DX2                !
 ! D181  D(24,33,38,32)         -0.2824         estimate D2E/DX2                !
 ! D182  D(24,33,38,54)       -179.4161         estimate D2E/DX2                !
 ! D183  D(49,33,38,32)        178.6813         estimate D2E/DX2                !
 ! D184  D(49,33,38,54)         -0.4524         estimate D2E/DX2                !
 ! D185  D(26,34,39,35)          0.7953         estimate D2E/DX2                !
 ! D186  D(26,34,39,55)        179.9307         estimate D2E/DX2                !
 ! D187  D(50,34,39,35)       -178.7499         estimate D2E/DX2                !
 ! D188  D(50,34,39,55)          0.3855         estimate D2E/DX2                !
 ! D189  D(27,35,39,34)         -0.2824         estimate D2E/DX2                !
 ! D190  D(27,35,39,55)       -179.4161         estimate D2E/DX2                !
 ! D191  D(51,35,39,34)        178.6813         estimate D2E/DX2                !
 ! D192  D(51,35,39,55)         -0.4524         estimate D2E/DX2                !
 ! D193  D(28,36,40,37)          0.7953         estimate D2E/DX2                !
 ! D194  D(28,36,40,56)        179.9307         estimate D2E/DX2                !
 ! D195  D(52,36,40,37)       -178.7499         estimate D2E/DX2                !
 ! D196  D(52,36,40,56)          0.3855         estimate D2E/DX2                !
 ! D197  D(29,37,40,36)         -0.2825         estimate D2E/DX2                !
 ! D198  D(29,37,40,56)       -179.4161         estimate D2E/DX2                !
 ! D199  D(53,37,40,36)        178.6812         estimate D2E/DX2                !
 ! D200  D(53,37,40,56)         -0.4524         estimate D2E/DX2                !
 --------------------------------------------------------------------------------
 Trust Radius=3.00D-01 FncErr=1.00D-07 GrdErr=1.00D-06
 Number of steps in this run= 336 maximum allowed number of steps= 336.
 GradGradGradGradGradGradGradGradGradGradGradGradGradGradGradGradGradGrad

 Stoichiometry    C24H16Mn2N4O10
 Framework group  C2[X(C24H16Mn2N4O10)]
 Deg. of freedom    82
 Full point group                 C2      NOp   2
 Largest Abelian subgroup         C2      NOp   2
 Largest concise Abelian subgroup C2      NOp   2
                         Standard orientation:                         
 ---------------------------------------------------------------------
 Center     Atomic      Atomic             Coordinates (Angstroms)
 Number     Number       Type             X           Y           Z
 ---------------------------------------------------------------------
      1         25           0        0.000000    1.360948   -0.000000
      2         25           0       -0.000000   -1.360948   -0.000000
      3          8           0       -1.177177   -0.000000   -0.000001
      4          8           0        1.378934    2.679604    0.297457
      5          8           0        2.406265    3.902155    1.888574
      6          8           0        1.177177    0.000000   -0.000001
      7          8           0       -1.378935    2.679603   -0.297457
      8          8           0        1.378935   -2.679603   -0.297457
      9          8           0       -1.378934   -2.679604    0.297457
     10          8           0       -2.406259    3.902163   -1.888571
     11          8           0        2.406259   -3.902163   -1.888571
     12          8           0       -2.406265   -3.902155    1.888574
     13          7           0       -0.289608    1.655191    1.960916
     14          7           0        0.289608    1.655192   -1.960917
     15          7           0       -0.289608   -1.655192   -1.960917
     16          7           0        0.289608   -1.655191    1.960916
     17          6           0       -1.283563    1.136094    2.686182
     18          6           0       -1.447180    1.496443    4.017116
     19          6           0       -0.562663    2.411467    4.586343
     20          6           0        0.452244    2.955666    3.807387
     21          6           0        0.548992    2.558074    2.483021
     22          6           0        1.557937    3.120840    1.509026
     23          6           0        1.283563    1.136097   -2.686184
     24          6           0       -0.548991    2.558077   -2.483021
     25          6           0       -1.557939    3.120839   -1.509026
     26          6           0       -1.283563   -1.136097   -2.686184
     27          6           0        0.548991   -2.558077   -2.483021
     28          6           0        1.283563   -1.136094    2.686182
     29          6           0       -0.548992   -2.558074    2.483021
     30          6           0        1.557939   -3.120839   -1.509026
     31          6           0       -1.557937   -3.120840    1.509026
     32          6           0        1.447180    1.496448   -4.017117
     33          6           0       -0.452243    2.955671   -3.807385
     34          6           0       -1.447180   -1.496448   -4.017117
     35          6           0        0.452243   -2.955671   -3.807385
     36          6           0        1.447180   -1.496443    4.017116
     37          6           0       -0.452244   -2.955666    3.807387
     38          6           0        0.562665    2.411474   -4.586342
     39          6           0       -0.562665   -2.411474   -4.586342
     40          6           0        0.562663   -2.411467    4.586343
     41          1           0       -1.929967    0.438153    2.163392
     42          1           0       -2.262074    1.067852    4.589989
     43          1           0       -0.675606    2.706164    5.625588
     44          1           0        1.163872    3.687395    4.174294
     45          1           0        1.929966    0.438155   -2.163395
     46          1           0       -1.929966   -0.438155   -2.163395
     47          1           0        1.929967   -0.438153    2.163392
     48          1           0        2.262074    1.067858   -4.589990
     49          1           0       -1.163872    3.687400   -4.174292
     50          1           0       -2.262074   -1.067858   -4.589990
     51          1           0        1.163872   -3.687400   -4.174292
     52          1           0        2.262074   -1.067852    4.589989
     53          1           0       -1.163872   -3.687395    4.174294
     54          1           0        0.675608    2.706172   -5.625587
     55          1           0       -0.675608   -2.706172   -5.625587
     56          1           0        0.675606   -2.706164    5.625588
 ---------------------------------------------------------------------
 Rotational constants (GHZ):      0.1135825      0.1030927      0.0672737
 General basis read from cards:  (5D, 7F)
 ======================================================================================================
                                       Pseudopotential Parameters
 ======================================================================================================
  Center     Atomic      Valence      Angular      Power
  Number     Number     Electrons     Momentum     of R      Exponent        Coefficient   SO-Coeffient
 ======================================================================================================
    1         25           15
                                      F and up 
                                                     2        1.0000000        0.00000000    0.00000000
                                      S - F
                                                     2       18.5200000      226.43090200    0.00000000
                                                     2        8.3730000       30.35907200    0.00000000
                                      P - F
                                                     2       18.9200000      142.15470500    0.00000000
                                                     2        8.0170000       21.53650900    0.00000000
                                      D - F
                                                     2       22.7200000      -22.56811900    0.00000000
                                                     2        7.6400000       -1.20581000    0.00000000
    2         25           15
                                      F and up 
                                                     2        1.0000000        0.00000000    0.00000000
                                      S - F
                                                     2       18.5200000      226.43090200    0.00000000
                                                     2        8.3730000       30.35907200    0.00000000
                                      P - F
                                                     2       18.9200000      142.15470500    0.00000000
                                                     2        8.0170000       21.53650900    0.00000000
                                      D - F
                                                     2       22.7200000      -22.56811900    0.00000000
                                                     2        7.6400000       -1.20581000    0.00000000
    3          8
                                   No pseudopotential on this center.
    4          8
                                   No pseudopotential on this center.
    5          8
                                   No pseudopotential on this center.
    6          8
                                   No pseudopotential on this center.
    7          8
                                   No pseudopotential on this center.
    8          8
                                   No pseudopotential on this center.
    9          8
                                   No pseudopotential on this center.
   10          8
                                   No pseudopotential on this center.
   11          8
                                   No pseudopotential on this center.
   12          8
                                   No pseudopotential on this center.
   13          7
                                   No pseudopotential on this center.
   14          7
                                   No pseudopotential on this center.
   15          7
                                   No pseudopotential on this center.
   16          7
                                   No pseudopotential on this center.
   17          6
                                   No pseudopotential on this center.
   18          6
                                   No pseudopotential on this center.
   19          6
                                   No pseudopotential on this center.
   20          6
                                   No pseudopotential on this center.
   21          6
                                   No pseudopotential on this center.
   22          6
                                   No pseudopotential on this center.
   23          6
                                   No pseudopotential on this center.
   24          6
                                   No pseudopotential on this center.
   25          6
                                   No pseudopotential on this center.
   26          6
                                   No pseudopotential on this center.
   27          6
                                   No pseudopotential on this center.
   28          6
                                   No pseudopotential on this center.
   29          6
                                   No pseudopotential on this center.
   30          6
                                   No pseudopotential on this center.
   31          6
                                   No pseudopotential on this center.
   32          6
                                   No pseudopotential on this center.
   33          6
                                   No pseudopotential on this center.
   34          6
                                   No pseudopotential on this center.
   35          6
                                   No pseudopotential on this center.
   36          6
                                   No pseudopotential on this center.
   37          6
                                   No pseudopotential on this center.
   38          6
                                   No pseudopotential on this center.
   39          6
                                   No pseudopotential on this center.
   40          6
                                   No pseudopotential on this center.
   41          1
                                   No pseudopotential on this center.
   42          1
                                   No pseudopotential on this center.
   43          1
                                   No pseudopotential on this center.
   44          1
                                   No pseudopotential on this center.
   45          1
                                   No pseudopotential on this center.
   46          1
                                   No pseudopotential on this center.
   47          1
                                   No pseudopotential on this center.
   48          1
                                   No pseudopotential on this center.
   49          1
                                   No pseudopotential on this center.
   50          1
                                   No pseudopotential on this center.
   51          1
                                   No pseudopotential on this center.
   52          1
                                   No pseudopotential on this center.
   53          1
                                   No pseudopotential on this center.
   54          1
                                   No pseudopotential on this center.
   55          1
                                   No pseudopotential on this center.
   56          1
                                   No pseudopotential on this center.
 ======================================================================================================
 There are   349 symmetry adapted basis functions of A   symmetry.
 There are   349 symmetry adapted basis functions of B   symmetry.
 Integral buffers will be    131072 words long.
 Raffenetti 2 integral format.
 Two-electron integral symmetry is turned on.
   698 basis functions,  1326 primitive gaussians,   748 cartesian basis functions
   149 alpha electrons      149 beta electrons
       nuclear repulsion energy      5585.4253116422 Hartrees.
 NAtoms=   56 NActive=   56 NUniq=   28 SFac= 3.00D+00 NAtFMM=   80 NAOKFM=F Big=F
 One-electron integrals computed using PRISM.
   2 Symmetry operations used in ECPInt.
 ECPInt:  NShTT=   26565 NPrTT=  147907 LenC2=   21054 LenP2D=   62858.
 LDataN:  DoStor=T MaxTD1= 6 Len=  172
 NBasis=   698 RedAO= T  NBF=   349   349
 NBsUse=   698 1.00D-06 NBFU=   349   349
 Initial guess read from the checkpoint file:  antiferro.chk
 B after Tr=    -0.000000    0.000000    0.000000
         Rot=    1.000000   -0.000000    0.000000   -0.000000 Ang=   0.00 deg.
 Initial guess orbital symmetries:
 Alpha Orbitals:
       Occupied  (B) (?A) (B) (?A) (B) (?A) (?B) (?B) (?B) (?B)
                 (?B) (?B) (?B) (?B) (?B) (?B) (?B) (?B) (?B) (?B)
                 (?B) (?B) (?B) (?B) (?B) (?B) (?B) (?B) (?B) (?B)
                 (?B) (?B) (?B) (?B) (?B) (?B) (?B) (?B) (?B) (?B)
                 (?C) (?C) (?D) (?C) (?D) (?C) (?B) (?B) (?B) (?B)
                 (?E) (?B) (?E) (?B) (?E) (?E) (?B) (?B) (?D) (?F)
                 (?B) (?B) (?B) (?B) (?B) (?B) (?B) (?B) (?G) (?G)
                 (?B) (?B) (B) (A) (?B) (?B) (?F) (?F) (?G) (?G)
                 (?G) (?G) (?F) (?F) (?G) (?G) (?F) (?F) (?G) (?F)
                 (?G) (?F) (?G) (?F) (?G) (?F) (?G) (?G) (?F) (?G)
                 (?G) (?F) (?F) (?G) (?F) (?G) (?F) (?G) (?F) (?F)
                 (?G) (?G) (?F) (?G) (?G) (?F) (?F) (?G) (?F) (?F)
                 (?G) (?G) (?G) (?F) (?F) (?G) (?F) (?F) (?G) (?F)
                 (?G) (?G) (?F) (?G) (?F) (?F) (?F) (?G) (?G) (?G)
                 (?G) (?F) (?G) (?F) (?F) (?G) (?F) (?G) (?F)
       Virtual   (?G) (?G) (?F) (?F) (?G) (?F) (?G) (?F) (?F) (?G)
                 (?G) (?G) (?F) (?G) (?F) (?G) (?G) (?F) (?G) (?F)
                 (?F) (?G) (?F) (?F) (?G) (?G) (?F) (?F) (?G) (?F)
                 (?G) (?G) (?G) (?F) (?G) (?F) (?G) (?F) (?F) (?G)
                 (?G) (?F) (?G) (?G) (?F) (A) (?F) (?G) (B) (?F)
                 (?F) (?G) (?G) (?G) (?F) (?G) (?F) (?G) (?G) (?F)
                 (?G) (?F) (?G) (?G) (?F) (?F) (?G) (?G) (?F) (?G)
                 (?F) (?F) (?F) (?G) (?F) (?G) (?G) (?F) (?F) (?G)
                 (?F) (?G) (?G) (?F) (?F) (?G) (?G) (?G) (?F) (?G)
                 (?F) (?G) (?F) (?F) (?F) (?F) (?G) (?F) (?F) (?G)
                 (?G) (?G) (?G) (?F) (?G) (?G) (?F) (?F) (?G) (?F)
                 (A) (?G) (?G) (?F) (?G) (?G) (?F) (?G) (?G) (?F)
                 (?F) (?G) (?F) (?G) (?F) (?G) (?G) (?F) (?F) (?F)
                 (?F) (?G) (?G) (?F) (?G) (?F) (?G) (?F) (?G) (?F)
                 (?G) (?F) (?G) (?F) (?G) (?G) (?F) (?G) (?F) (?F)
                 (?G) (?G) (?F) (?G) (?F) (?F) (?G) (?F) (?G) (?G)
                 (?F) (?G) (?F) (?G) (?F) (?F) (?G) (?G) (?F) (?F)
                 (?G) (?G) (?F) (?G) (?G) (?F) (?G) (?F) (?G) (?F)
                 (?G) (?F) (?G) (?F) (?F) (?G) (?F) (?G) (?F) (?G)
                 (?F) (?G) (?F) (?F) (?G) (?F) (?G) (?F) (?G) (?G)
                 (?F) (?F) (?F) (?G) (?F) (?G) (?F) (?F) (?F) (?F)
                 (?G) (?G) (?G) (?G) (?G) (?F) (?G) (?G) (?G) (?F)
                 (?F) (?G) (?F) (?F) (?G) (?G) (?G) (?F) (?F) (?G)
                 (?G) (?F) (?F) (?G) (?G) (?F) (?F) (?G) (?G) (?F)
                 (?F) (?G) (?F) (?G) (?F) (?G) (?F) (?F) (?F) (?G)
                 (?G) (?G) (?F) (?G) (?F) (?G) (?F) (?F) (?G) (?G)
                 (?F) (?G) (?F) (?F) (?G) (?G) (?F) (?F) (?G) (?G)
                 (?F) (?G) (?G) (?F) (?G) (?G) (?F) (?G) (?F) (?G)
                 (?F) (?F) (?F) (?G) (?G) (?G) (?F) (?G) (?F) (?F)
                 (?G) (?G) (?G) (?F) (?F) (?G) (?F) (?F) (?F) (?G)
                 (?G) (?F) (?F) (?G) (?F) (?G) (?F) (?G) (?G) (?F)
                 (?F) (?F) (?G) (?G) (?G) (?F) (?G) (?F) (A) (?F)
                 (?F) (?F) (?G) (?F) (?F) (?F) (?G) (?F) (?G) (?G)
                 (?G) (?G) (?F) (?F) (?G) (?G) (?G) (?F) (?F) (?F)
                 (?G) (?G) (?F) (?F) (?G) (?F) (?F) (?G) (?G) (?F)
                 (?G) (?F) (?G) (?G) (?F) (?F) (?F) (?G) (?G) (?G)
                 (?F) (?G) (?F) (?G) (?G) (?F) (?F) (?G) (?G) (?F)
                 (?F) (?F) (?G) (?G) (?F) (?G) (?F) (?G) (?G) (?F)
                 (?F) (?G) (?G) (?F) (?G) (?G) (?F) (?G) (?F) (?F)
                 (?G) (?F) (?F) (?G) (?G) (?F) (?F) (?F) (?G) (?G)
                 (?G) (?F) (?F) (?G) (?F) (?G) (?F) (B) (?G) (?G)
                 (?G) (?G) (?F) (?F) (?F) (?G) (?F) (?G) (?F) (?G)
                 (?G) (?F) (?F) (?G) (?F) (?G) (?F) (?G) (?F) (?F)
                 (?G) (?F) (?G) (?G) (?G) (?F) (?G) (?F) (?F) (?G)
                 (?F) (?G) (?F) (?G) (?F) (?G) (?F) (?F) (?G) (?G)
                 (?G) (?F) (?F) (?F) (?G) (?G) (?F) (?F) (?G) (?F)
                 (?F) (?G) (?G) (?G) (?F) (?F) (?F) (?G) (?F) (?G)
                 (?F) (?G) (?G) (?F) (?G) (?G) (A) (?F) (?G) (?F)
                 (?G) (?G) (?G) (?F) (?F) (?F) (?F) (?G) (?G) (?G)
                 (?F) (?G) (?F) (?F) (?G) (?G) (?F) (?G) (?F) (?F)
                 (?G) (?G) (?B) (?G) (?B) (?G) (?G) (A) (?G) (B)
                 (?G) (?B) (?B) (?G) (?G) (?B) (?G) (?B) (?G) (A)
                 (?G) (B) (?G) (?B) (?B) (B) (A) (?H) (?H) (?I)
                 (?I) (?H) (?H) (?H) (?I) (?I) (?I) (?H) (?H) (?I)
                 (?H) (?J) (?J) (?B) (?J) (?J) (?B) (?B) (?B)
 Beta  Orbitals:
       Occupied  (B) (?A) (B) (?A) (B) (?A) (?B) (?B) (?B) (?B)
                 (?B) (?B) (?B) (?B) (?B) (?B) (?B) (?B) (?B) (?B)
                 (?B) (?B) (?B) (?B) (?B) (?B) (?B) (?B) (?B) (?B)
                 (?B) (?B) (?B) (?B) (?B) (?B) (?B) (?B) (?B) (?B)
                 (?C) (?C) (?D) (?C) (?D) (?C) (?B) (?B) (?B) (?B)
                 (?E) (?B) (?E) (?B) (?E) (?E) (?B) (?B) (?D) (?F)
                 (?B) (?B) (?B) (?B) (?B) (?B) (?B) (?B) (?G) (?G)
                 (?B) (?B) (B) (A) (?B) (?B) (?F) (?F) (?G) (?G)
                 (?G) (?G) (?F) (?F) (?G) (?G) (?F) (?F) (?G) (?F)
                 (?G) (?F) (?G) (?F) (?G) (?F) (?G) (?G) (?F) (?G)
                 (?G) (?F) (?F) (?G) (?F) (?G) (?F) (?G) (?F) (?F)
                 (?G) (?G) (?F) (?G) (?G) (?F) (?F) (?G) (?F) (?F)
                 (?G) (?G) (?G) (?F) (?F) (?G) (?F) (?F) (?G) (?F)
                 (?G) (?G) (?F) (?G) (?F) (?F) (?F) (?G) (?G) (?G)
                 (?G) (?F) (?G) (?F) (?F) (?G) (?F) (?G) (?F)
       Virtual   (?G) (?G) (?F) (?F) (?G) (?F) (?G) (?F) (?F) (?G)
                 (?G) (?G) (?F) (?G) (?F) (?G) (?G) (?F) (?G) (?F)
                 (?F) (?G) (?F) (?F) (?G) (?G) (?F) (?F) (?G) (?F)
                 (?G) (?G) (?G) (?F) (?G) (?F) (?G) (?F) (?F) (?G)
                 (?G) (?F) (?G) (?G) (?F) (A) (?F) (?G) (B) (?F)
                 (?F) (?G) (?G) (?G) (?F) (?G) (?F) (?G) (?G) (?F)
                 (?G) (?F) (?G) (?G) (?F) (?F) (?G) (?G) (?F) (?G)
                 (?F) (?F) (?F) (?G) (?F) (?G) (?G) (?F) (?F) (?G)
                 (?F) (?G) (?G) (?F) (?F) (?G) (?G) (?G) (?F) (?G)
                 (?F) (?G) (?F) (?F) (?F) (?F) (?G) (?F) (?F) (?G)
                 (?G) (?G) (?G) (?F) (?G) (?G) (?F) (?F) (?G) (?F)
                 (A) (?G) (?G) (?F) (?G) (?G) (?F) (?G) (?G) (?F)
                 (?F) (?G) (?F) (?G) (?F) (?G) (?G) (?F) (?F) (?F)
                 (?F) (?G) (?G) (?F) (?G) (?F) (?G) (?F) (?G) (?F)
                 (?G) (?F) (?G) (?F) (?G) (?G) (?F) (?G) (?F) (?F)
                 (?G) (?G) (?F) (?G) (?F) (?F) (?G) (?F) (?G) (?G)
                 (?F) (?G) (?F) (?G) (?F) (?F) (?G) (?G) (?F) (?F)
                 (?G) (?G) (?F) (?G) (?G) (?F) (?G) (?F) (?G) (?F)
                 (?G) (?F) (?G) (?F) (?F) (?G) (?F) (?G) (?F) (?G)
                 (?F) (?G) (?F) (?F) (?G) (?F) (?G) (?F) (?G) (?G)
                 (?F) (?F) (?F) (?G) (?F) (?G) (?F) (?F) (?F) (?F)
                 (?G) (?G) (?G) (?G) (?G) (?F) (?G) (?G) (?G) (?F)
                 (?F) (?G) (?F) (?F) (?G) (?G) (?G) (?F) (?F) (?G)
                 (?G) (?F) (?F) (?G) (?G) (?F) (?F) (?G) (?G) (?F)
                 (?F) (?G) (?F) (?G) (?F) (?G) (?F) (?F) (?F) (?G)
                 (?G) (?G) (?F) (?G) (?F) (?G) (?F) (?F) (?G) (?G)
                 (?F) (?G) (?F) (?F) (?G) (?G) (?F) (?F) (?G) (?G)
                 (?F) (?G) (?G) (?F) (?G) (?G) (?F) (?G) (?F) (?G)
                 (?F) (?F) (?F) (?G) (?G) (?G) (?F) (?G) (?F) (?F)
                 (?G) (?G) (?G) (?F) (?F) (?G) (?F) (?F) (?F) (?G)
                 (?G) (?F) (?F) (?G) (?F) (?G) (?F) (?G) (?G) (?F)
                 (?F) (?F) (?G) (?G) (?G) (?F) (?G) (?F) (A) (?F)
                 (?F) (?F) (?G) (?F) (?F) (?F) (?G) (?F) (?G) (?G)
                 (?G) (?G) (?F) (?F) (?G) (?G) (?G) (?F) (?F) (?F)
                 (?G) (?G) (?F) (?F) (?G) (?F) (?F) (?G) (?G) (?F)
                 (?G) (?F) (?G) (?G) (?F) (?F) (?F) (?G) (?G) (?G)
                 (?F) (?G) (?F) (?G) (?G) (?F) (?F) (?G) (?G) (?F)
                 (?F) (?F) (?G) (?G) (?F) (?G) (?F) (?G) (?G) (?F)
                 (?F) (?G) (?G) (?F) (?G) (?G) (?F) (?G) (?F) (?F)
                 (?G) (?F) (?F) (?G) (?G) (?F) (?F) (?F) (?G) (?G)
                 (?G) (?F) (?F) (?G) (?F) (?G) (?F) (B) (?G) (?G)
                 (?G) (?G) (?F) (?F) (?F) (?G) (?F) (?G) (?F) (?G)
                 (?G) (?F) (?F) (?G) (?F) (?G) (?F) (?G) (?F) (?F)
                 (?G) (?F) (?G) (?G) (?G) (?F) (?G) (?F) (?F) (?G)
                 (?F) (?G) (?F) (?G) (?F) (?G) (?F) (?F) (?G) (?G)
                 (?G) (?F) (?F) (?F) (?G) (?G) (?F) (?F) (?G) (?F)
                 (?F) (?G) (?G) (?G) (?F) (?F) (?F) (?G) (?F) (?G)
                 (?F) (?G) (?G) (?F) (?G) (?G) (A) (?F) (?G) (?F)
                 (?G) (?G) (?G) (?F) (?F) (?F) (?F) (?G) (?G) (?G)
                 (?F) (?G) (?F) (?F) (?G) (?G) (?F) (?G) (?F) (?F)
                 (?G) (?G) (?B) (?G) (?B) (?G) (?G) (A) (?G) (B)
                 (?G) (?B) (?B) (?G) (?G) (?B) (?G) (?B) (?G) (A)
                 (?G) (B) (?G) (?B) (?B) (B) (A) (?H) (?H) (?I)
                 (?I) (?H) (?H) (?H) (?I) (?I) (?I) (?H) (?H) (?I)
                 (?H) (?J) (?J) (?B) (?J) (?J) (?B) (?B) (?B)
 Initial guess <Sx>= 0.0000 <Sy>= 0.0000 <Sz>= 0.0000 <S**2>= 3.0796 S= 1.3247
 Requested convergence on RMS density matrix=1.00D-08 within 128 cycles.
 Requested convergence on MAX density matrix=1.00D-06.
 Requested convergence on             energy=1.00D-06.
 No special actions if energy rises.
 An orbital has undefined symmetry, so N**3 symmetry is turned off.
 Density matrix breaks symmetry, PCut= 1.00D-04
 Density matrix has no symmetry -- integrals replicated.
 Density matrix breaks symmetry, PCut= 1.00D-04
 Density matrix has no symmetry -- integrals replicated.
 SCF Done:  E(UPBE1PBE) =  -2102.25863843     A.U. after    1 cycles
             Convg  =    0.1611D-08             -V/T =  2.0538
 <Sx>= 0.0000 <Sy>= 0.0000 <Sz>= 0.0000 <S**2>= 3.0796 S= 1.3247
 <L.S>=  0.00000000000    
 Annihilation of the first spin contaminant:
 S**2 before annihilation     3.0796,   after     9.2974
 DiagDN has N=   698 LTot=  2126 but NE2=     3 cannot use DSYEVD.

 **********************************************************************

            Population analysis using the SCF density.

 **********************************************************************

 Orbital symmetries:
 Alpha Orbitals:
       Occupied  (B) (?A) (B) (?A) (B) (?A) (?B) (?B) (?B) (?B)
                 (?B) (?B) (?B) (?B) (?B) (?B) (?B) (?B) (?B) (?B)
                 (?B) (?B) (?B) (?B) (?B) (?B) (?B) (?B) (?B) (?B)
                 (?B) (?B) (?B) (?B) (?B) (?B) (?B) (?B) (?B) (?B)
                 (?C) (?C) (?D) (?C) (?D) (?C) (?B) (?B) (?B) (?B)
                 (?E) (?B) (?E) (?B) (?E) (?E) (?B) (?B) (?D) (?F)
                 (?B) (?B) (?B) (?B) (?B) (?B) (?B) (?B) (?G) (?G)
                 (?B) (?B) (B) (A) (?B) (?B) (?F) (?F) (?G) (?G)
                 (?G) (?G) (?F) (?F) (?G) (?G) (?F) (?F) (?G) (?F)
                 (?G) (?F) (?G) (?F) (?G) (?F) (?G) (?G) (?F) (?G)
                 (?G) (?F) (?F) (?G) (?F) (?G) (?F) (?G) (?F) (?F)
                 (?G) (?G) (?F) (?G) (?G) (?F) (?F) (?G) (?F) (?F)
                 (?G) (?G) (?G) (?F) (?F) (?G) (?F) (?F) (?G) (?F)
                 (?G) (?G) (?F) (?G) (?F) (?F) (?F) (?G) (?G) (?G)
                 (?G) (?F) (?G) (?F) (?F) (?G) (?F) (?G) (?F)
       Virtual   (?G) (?G) (?F) (?F) (?G) (?F) (?G) (?F) (?F) (?G)
                 (?G) (?G) (?F) (?G) (?F) (?G) (?G) (?F) (?G) (?F)
                 (?F) (?G) (?F) (?F) (?G) (?G) (?F) (?F) (?G) (?F)
                 (?G) (?G) (?G) (?F) (?G) (?F) (?G) (?F) (?F) (?G)
                 (?G) (?F) (?G) (?G) (?F) (A) (?F) (?G) (B) (?F)
                 (?F) (?G) (?G) (?G) (?F) (?G) (?F) (?G) (?G) (?F)
                 (?G) (?F) (?G) (?G) (?F) (?F) (?G) (?G) (?F) (?G)
                 (?F) (?F) (?F) (?G) (?F) (?G) (?G) (?F) (?F) (?G)
                 (?F) (?G) (?G) (?F) (?F) (?G) (?G) (?G) (?F) (?G)
                 (?F) (?G) (?F) (?F) (?F) (?F) (?G) (?F) (?F) (?G)
                 (?G) (?G) (?G) (?F) (?G) (?G) (?F) (?F) (?G) (?F)
                 (A) (?G) (?G) (?F) (?G) (?G) (?F) (?G) (?G) (?F)
                 (?F) (?G) (?F) (?G) (?F) (?G) (?G) (?F) (?F) (?F)
                 (?F) (?G) (?G) (?F) (?G) (?F) (?G) (?F) (?G) (?F)
                 (?G) (?F) (?G) (?F) (?G) (?G) (?F) (?G) (?F) (?F)
                 (?G) (?G) (?F) (?G) (?F) (?F) (?G) (?F) (?G) (?G)
                 (?F) (?G) (?F) (?G) (?F) (?F) (?G) (?G) (?F) (?F)
                 (?G) (?G) (?F) (?G) (?G) (?F) (?G) (?F) (?G) (?F)
                 (?G) (?F) (?G) (?F) (?F) (?G) (?F) (?G) (?F) (?G)
                 (?F) (?G) (?F) (?F) (?G) (?F) (?G) (?F) (?G) (?G)
                 (?F) (?F) (?F) (?G) (?F) (?G) (?F) (?F) (?F) (?F)
                 (?G) (?G) (?G) (?G) (?G) (?F) (?G) (?G) (?G) (?F)
                 (?F) (?G) (?F) (?F) (?G) (?G) (?G) (?F) (?F) (?G)
                 (?G) (?F) (?F) (?G) (?G) (?F) (?F) (?G) (?G) (?F)
                 (?F) (?G) (?F) (?G) (?F) (?G) (?F) (?F) (?F) (?G)
                 (?G) (?G) (?F) (?G) (?F) (?G) (?F) (?F) (?G) (?G)
                 (?F) (?G) (?F) (?F) (?G) (?G) (?F) (?F) (?G) (?G)
                 (?F) (?G) (?G) (?F) (?G) (?G) (?F) (?G) (?F) (?G)
                 (?F) (?F) (?F) (?G) (?G) (?G) (?F) (?G) (?F) (?F)
                 (?G) (?G) (?G) (?F) (?F) (?G) (?F) (?F) (?F) (?G)
                 (?G) (?F) (?F) (?G) (?F) (?G) (?F) (?G) (?G) (?F)
                 (?F) (?F) (?G) (?G) (?G) (?F) (?G) (?F) (A) (?F)
                 (?F) (?F) (?G) (?F) (?F) (?F) (?G) (?F) (?G) (?G)
                 (?G) (?G) (?F) (?F) (?G) (?G) (?G) (?F) (?F) (?F)
                 (?G) (?G) (?F) (?F) (?G) (?F) (?F) (?G) (?G) (?F)
                 (?G) (?F) (?G) (?G) (?F) (?F) (?F) (?G) (?G) (?G)
                 (?F) (?G) (?F) (?G) (?G) (?F) (?F) (?G) (?G) (?F)
                 (?F) (?F) (?G) (?G) (?F) (?G) (?F) (?G) (?G) (?F)
                 (?F) (?G) (?G) (?F) (?G) (?G) (?F) (?G) (?F) (?F)
                 (?G) (?F) (?F) (?G) (?G) (?F) (?F) (?F) (?G) (?G)
                 (?G) (?F) (?F) (?G) (?F) (?G) (?F) (B) (?G) (?G)
                 (?G) (?G) (?F) (?F) (?F) (?G) (?F) (?G) (?F) (?G)
                 (?G) (?F) (?F) (?G) (?F) (?G) (?F) (?G) (?F) (?F)
                 (?G) (?F) (?G) (?G) (?G) (?F) (?G) (?F) (?F) (?G)
                 (?F) (?G) (?F) (?G) (?F) (?G) (?F) (?F) (?G) (?G)
                 (?G) (?F) (?F) (?F) (?G) (?G) (?F) (?F) (?G) (?F)
                 (?F) (?G) (?G) (?G) (?F) (?F) (?F) (?G) (?F) (?G)
                 (?F) (?G) (?G) (?F) (?G) (?G) (A) (?F) (?G) (?F)
                 (?G) (?G) (?G) (?F) (?F) (?F) (?F) (?G) (?G) (?G)
                 (?F) (?G) (?F) (?F) (?G) (?G) (?F) (?G) (?F) (?F)
                 (?G) (?G) (?B) (?G) (?B) (?G) (?G) (A) (?G) (B)
                 (?G) (?B) (?B) (?G) (?G) (?B) (?G) (?B) (?G) (A)
                 (?G) (B) (?G) (?B) (?B) (B) (A) (?H) (?H) (?I)
                 (?I) (?H) (?H) (?H) (?I) (?I) (?I) (?H) (?H) (?I)
                 (?H) (?J) (?J) (?B) (?J) (?J) (?B) (?B) (?B)
 Beta  Orbitals:
       Occupied  (B) (?A) (B) (?A) (B) (?A) (?B) (?B) (?B) (?B)
                 (?B) (?B) (?B) (?B) (?B) (?B) (?B) (?B) (?B) (?B)
                 (?B) (?B) (?B) (?B) (?B) (?B) (?B) (?B) (?B) (?B)
                 (?B) (?B) (?B) (?B) (?B) (?B) (?B) (?B) (?B) (?B)
                 (?C) (?C) (?D) (?C) (?D) (?C) (?B) (?B) (?B) (?B)
                 (?E) (?B) (?E) (?B) (?E) (?E) (?B) (?B) (?D) (?F)
                 (?B) (?B) (?B) (?B) (?B) (?B) (?B) (?B) (?G) (?G)
                 (?B) (?B) (B) (A) (?B) (?B) (?F) (?F) (?G) (?G)
                 (?G) (?G) (?F) (?F) (?G) (?G) (?F) (?F) (?G) (?F)
                 (?G) (?F) (?G) (?F) (?G) (?F) (?G) (?G) (?F) (?G)
                 (?G) (?F) (?F) (?G) (?F) (?G) (?F) (?G) (?F) (?F)
                 (?G) (?G) (?F) (?G) (?G) (?F) (?F) (?G) (?F) (?F)
                 (?G) (?G) (?G) (?F) (?F) (?G) (?F) (?F) (?G) (?F)
                 (?G) (?G) (?F) (?G) (?F) (?F) (?F) (?G) (?G) (?G)
                 (?G) (?F) (?G) (?F) (?F) (?G) (?F) (?G) (?F)
       Virtual   (?G) (?G) (?F) (?F) (?G) (?F) (?G) (?F) (?F) (?G)
                 (?G) (?G) (?F) (?G) (?F) (?G) (?G) (?F) (?G) (?F)
                 (?F) (?G) (?F) (?F) (?G) (?G) (?F) (?F) (?G) (?F)
                 (?G) (?G) (?G) (?F) (?G) (?F) (?G) (?F) (?F) (?G)
                 (?G) (?F) (?G) (?G) (?F) (A) (?F) (?G) (B) (?F)
                 (?F) (?G) (?G) (?G) (?F) (?G) (?F) (?G) (?G) (?F)
                 (?G) (?F) (?G) (?G) (?F) (?F) (?G) (?G) (?F) (?G)
                 (?F) (?F) (?F) (?G) (?F) (?G) (?G) (?F) (?F) (?G)
                 (?F) (?G) (?G) (?F) (?F) (?G) (?G) (?G) (?F) (?G)
                 (?F) (?G) (?F) (?F) (?F) (?F) (?G) (?F) (?F) (?G)
                 (?G) (?G) (?G) (?F) (?G) (?G) (?F) (?F) (?G) (?F)
                 (A) (?G) (?G) (?F) (?G) (?G) (?F) (?G) (?G) (?F)
                 (?F) (?G) (?F) (?G) (?F) (?G) (?G) (?F) (?F) (?F)
                 (?F) (?G) (?G) (?F) (?G) (?F) (?G) (?F) (?G) (?F)
                 (?G) (?F) (?G) (?F) (?G) (?G) (?F) (?G) (?F) (?F)
                 (?G) (?G) (?F) (?G) (?F) (?F) (?G) (?F) (?G) (?G)
                 (?F) (?G) (?F) (?G) (?F) (?F) (?G) (?G) (?F) (?F)
                 (?G) (?G) (?F) (?G) (?G) (?F) (?G) (?F) (?G) (?F)
                 (?G) (?F) (?G) (?F) (?F) (?G) (?F) (?G) (?F) (?G)
                 (?F) (?G) (?F) (?F) (?G) (?F) (?G) (?F) (?G) (?G)
                 (?F) (?F) (?F) (?G) (?F) (?G) (?F) (?F) (?F) (?F)
                 (?G) (?G) (?G) (?G) (?G) (?F) (?G) (?G) (?G) (?F)
                 (?F) (?G) (?F) (?F) (?G) (?G) (?G) (?F) (?F) (?G)
                 (?G) (?F) (?F) (?G) (?G) (?F) (?F) (?G) (?G) (?F)
                 (?F) (?G) (?F) (?G) (?F) (?G) (?F) (?F) (?F) (?G)
                 (?G) (?G) (?F) (?G) (?F) (?G) (?F) (?F) (?G) (?G)
                 (?F) (?G) (?F) (?F) (?G) (?G) (?F) (?F) (?G) (?G)
                 (?F) (?G) (?G) (?F) (?G) (?G) (?F) (?G) (?F) (?G)
                 (?F) (?F) (?F) (?G) (?G) (?G) (?F) (?G) (?F) (?F)
                 (?G) (?G) (?G) (?F) (?F) (?G) (?F) (?F) (?F) (?G)
                 (?G) (?F) (?F) (?G) (?F) (?G) (?F) (?G) (?G) (?F)
                 (?F) (?F) (?G) (?G) (?G) (?F) (?G) (?F) (A) (?F)
                 (?F) (?F) (?G) (?F) (?F) (?F) (?G) (?F) (?G) (?G)
                 (?G) (?G) (?F) (?F) (?G) (?G) (?G) (?F) (?F) (?F)
                 (?G) (?G) (?F) (?F) (?G) (?F) (?F) (?G) (?G) (?F)
                 (?G) (?F) (?G) (?G) (?F) (?F) (?F) (?G) (?G) (?G)
                 (?F) (?G) (?F) (?G) (?G) (?F) (?F) (?G) (?G) (?F)
                 (?F) (?F) (?G) (?G) (?F) (?G) (?F) (?G) (?G) (?F)
                 (?F) (?G) (?G) (?F) (?G) (?G) (?F) (?G) (?F) (?F)
                 (?G) (?F) (?F) (?G) (?G) (?F) (?F) (?F) (?G) (?G)
                 (?G) (?F) (?F) (?G) (?F) (?G) (?F) (B) (?G) (?G)
                 (?G) (?G) (?F) (?F) (?F) (?G) (?F) (?G) (?F) (?G)
                 (?G) (?F) (?F) (?G) (?F) (?G) (?F) (?G) (?F) (?F)
                 (?G) (?F) (?G) (?G) (?G) (?F) (?G) (?F) (?F) (?G)
                 (?F) (?G) (?F) (?G) (?F) (?G) (?F) (?F) (?G) (?G)
                 (?G) (?F) (?F) (?F) (?G) (?G) (?F) (?F) (?G) (?F)
                 (?F) (?G) (?G) (?G) (?F) (?F) (?F) (?G) (?F) (?G)
                 (?F) (?G) (?G) (?F) (?G) (?G) (A) (?F) (?G) (?F)
                 (?G) (?G) (?G) (?F) (?F) (?F) (?F) (?G) (?G) (?G)
                 (?F) (?G) (?F) (?F) (?G) (?G) (?F) (?G) (?F) (?F)
                 (?G) (?G) (?B) (?G) (?B) (?G) (?G) (A) (?G) (B)
                 (?G) (?B) (?B) (?G) (?G) (?B) (?G) (?B) (?G) (A)
                 (?G) (B) (?G) (?B) (?B) (B) (A) (?H) (?H) (?I)
                 (?I) (?H) (?H) (?H) (?I) (?I) (?I) (?H) (?H) (?I)
                 (?H) (?J) (?J) (?B) (?J) (?J) (?B) (?B) (?B)
 Unable to determine electronic state:  an orbital has unidentified symmetry.
 Alpha  occ. eigenvalues --  -19.22218 -19.22216 -19.22203 -19.22199 -19.22197
 Alpha  occ. eigenvalues --  -19.22195 -19.19449 -19.19449 -19.19430 -19.19429
 Alpha  occ. eigenvalues --  -14.48157 -14.48156 -14.48016 -14.48015 -10.34999
 Alpha  occ. eigenvalues --  -10.34998 -10.34996 -10.34995 -10.31556 -10.31555
 Alpha  occ. eigenvalues --  -10.31538 -10.31537 -10.31437 -10.31436 -10.31418
 Alpha  occ. eigenvalues --  -10.31417 -10.29617 -10.29616 -10.29598 -10.29597
 Alpha  occ. eigenvalues --  -10.28632 -10.28632 -10.28615 -10.28614 -10.28120
 Alpha  occ. eigenvalues --  -10.28120 -10.28104 -10.28104  -3.51626  -3.35236
 Alpha  occ. eigenvalues --   -2.23792  -2.23757  -2.23756  -2.06577  -2.06308
 Alpha  occ. eigenvalues --   -2.05754  -1.09960  -1.09896  -1.09632  -1.09586
 Alpha  occ. eigenvalues --   -1.03863  -1.03631  -1.03544  -1.03375  -1.01015
 Alpha  occ. eigenvalues --   -1.00912  -1.00811  -1.00746  -0.96142  -0.93420
 Alpha  occ. eigenvalues --   -0.87423  -0.87402  -0.87370  -0.87316  -0.83860
 Alpha  occ. eigenvalues --   -0.83859  -0.83833  -0.83791  -0.71054  -0.71023
 Alpha  occ. eigenvalues --   -0.71011  -0.70901  -0.69578  -0.69531  -0.69406
 Alpha  occ. eigenvalues --   -0.69372  -0.61998  -0.61753  -0.61590  -0.61432
 Alpha  occ. eigenvalues --   -0.56925  -0.56551  -0.55691  -0.55584  -0.54940
 Alpha  occ. eigenvalues --   -0.54792  -0.54755  -0.54556  -0.52417  -0.52214
 Alpha  occ. eigenvalues --   -0.51992  -0.51862  -0.50229  -0.50103  -0.49860
 Alpha  occ. eigenvalues --   -0.49633  -0.49278  -0.49018  -0.48968  -0.48654
 Alpha  occ. eigenvalues --   -0.48297  -0.47950  -0.47821  -0.47192  -0.47073
 Alpha  occ. eigenvalues --   -0.45112  -0.45011  -0.44739  -0.44498  -0.44101
 Alpha  occ. eigenvalues --   -0.43345  -0.43241  -0.43091  -0.42842  -0.42552
 Alpha  occ. eigenvalues --   -0.42483  -0.42458  -0.42290  -0.42193  -0.41789
 Alpha  occ. eigenvalues --   -0.40535  -0.39385  -0.38598  -0.37134  -0.36492
 Alpha  occ. eigenvalues --   -0.35880  -0.35786  -0.35084  -0.34902  -0.34517
 Alpha  occ. eigenvalues --   -0.34398  -0.32753  -0.32543  -0.31904  -0.31371
 Alpha  occ. eigenvalues --   -0.31260  -0.31208  -0.31204  -0.31078  -0.30456
 Alpha  occ. eigenvalues --   -0.29601  -0.29255  -0.29118  -0.28966  -0.28571
 Alpha  occ. eigenvalues --   -0.27647  -0.27566  -0.27369  -0.27241
 Alpha virt. eigenvalues --   -0.11247  -0.09471  -0.09448  -0.07880  -0.07847
 Alpha virt. eigenvalues --   -0.07025  -0.06493  -0.06284  -0.05664  -0.05443
 Alpha virt. eigenvalues --   -0.05053  -0.04858  -0.04809  -0.03678  -0.00458
 Alpha virt. eigenvalues --    0.00151   0.01791   0.04282   0.05399   0.05450
 Alpha virt. eigenvalues --    0.05742   0.05781   0.05930   0.07194   0.07902
 Alpha virt. eigenvalues --    0.08079   0.08588   0.09292   0.09680   0.10341
 Alpha virt. eigenvalues --    0.10520   0.10761   0.12918   0.14188   0.14224
 Alpha virt. eigenvalues --    0.14360   0.14515   0.14569   0.15031   0.15158
 Alpha virt. eigenvalues --    0.16296   0.16595   0.16737   0.16780   0.16979
 Alpha virt. eigenvalues --    0.18550   0.18851   0.19799   0.19853   0.21566
 Alpha virt. eigenvalues --    0.21623   0.21870   0.22292   0.22302   0.23971
 Alpha virt. eigenvalues --    0.24422   0.24510   0.25203   0.26982   0.27094
 Alpha virt. eigenvalues --    0.27242   0.27866   0.28009   0.28058   0.28605
 Alpha virt. eigenvalues --    0.28721   0.28836   0.28919   0.29320   0.29467
 Alpha virt. eigenvalues --    0.30430   0.30606   0.31033   0.31354   0.31772
 Alpha virt. eigenvalues --    0.32374   0.32485   0.33980   0.34757   0.35218
 Alpha virt. eigenvalues --    0.35478   0.35485   0.36598   0.37072   0.38074
 Alpha virt. eigenvalues --    0.38433   0.40215   0.41193   0.41249   0.44596
 Alpha virt. eigenvalues --    0.45132   0.46459   0.46623   0.47125   0.48484
 Alpha virt. eigenvalues --    0.48738   0.49363   0.50234   0.50374   0.50441
 Alpha virt. eigenvalues --    0.51194   0.51400   0.51712   0.51985   0.52552
 Alpha virt. eigenvalues --    0.53404   0.54238   0.55195   0.55226   0.55273
 Alpha virt. eigenvalues --    0.55592   0.55608   0.58626   0.58870   0.58932
 Alpha virt. eigenvalues --    0.59077   0.59331   0.59421   0.59852   0.59925
 Alpha virt. eigenvalues --    0.60591   0.60704   0.60717   0.61288   0.61582
 Alpha virt. eigenvalues --    0.62462   0.62649   0.64103   0.64296   0.64445
 Alpha virt. eigenvalues --    0.65546   0.65589   0.65640   0.65787   0.65989
 Alpha virt. eigenvalues --    0.66832   0.66850   0.67026   0.68362   0.70309
 Alpha virt. eigenvalues --    0.70507   0.70870   0.70914   0.71794   0.73180
 Alpha virt. eigenvalues --    0.73688   0.73842   0.74905   0.75135   0.75902
 Alpha virt. eigenvalues --    0.76916   0.78136   0.78238   0.78293   0.78636
 Alpha virt. eigenvalues --    0.79017   0.80020   0.80055   0.80392   0.80529
 Alpha virt. eigenvalues --    0.80630   0.80796   0.81079   0.81686   0.81880
 Alpha virt. eigenvalues --    0.82973   0.83052   0.83837   0.84279   0.84626
 Alpha virt. eigenvalues --    0.84989   0.85370   0.85892   0.86417   0.86960
 Alpha virt. eigenvalues --    0.88801   0.89267   0.89633   0.89809   0.90043
 Alpha virt. eigenvalues --    0.91848   0.92148   0.92429   0.93412   0.93476
 Alpha virt. eigenvalues --    0.94779   0.95056   0.95391   0.96224   0.96714
 Alpha virt. eigenvalues --    0.96747   0.97614   0.97721   0.99211   1.01431
 Alpha virt. eigenvalues --    1.01492   1.01731   1.02046   1.02875   1.03682
 Alpha virt. eigenvalues --    1.04305   1.04740   1.04991   1.04998   1.05677
 Alpha virt. eigenvalues --    1.06193   1.06866   1.07693   1.08071   1.08512
 Alpha virt. eigenvalues --    1.08852   1.09135   1.09717   1.11456   1.12335
 Alpha virt. eigenvalues --    1.13075   1.13753   1.14275   1.14931   1.14978
 Alpha virt. eigenvalues --    1.15298   1.15747   1.16430   1.16658   1.17119
 Alpha virt. eigenvalues --    1.18091   1.18649   1.18864   1.19549   1.20235
 Alpha virt. eigenvalues --    1.20751   1.20795   1.22660   1.22703   1.23592
 Alpha virt. eigenvalues --    1.24122   1.25035   1.25696   1.25802   1.27212
 Alpha virt. eigenvalues --    1.27689   1.27740   1.28052   1.28074   1.29949
 Alpha virt. eigenvalues --    1.31209   1.31305   1.32045   1.32115   1.32291
 Alpha virt. eigenvalues --    1.32903   1.33204   1.33411   1.33625   1.34672
 Alpha virt. eigenvalues --    1.35286   1.35929   1.36301   1.36387   1.36601
 Alpha virt. eigenvalues --    1.36997   1.37131   1.37536   1.37913   1.38788
 Alpha virt. eigenvalues --    1.39135   1.39950   1.40144   1.40385   1.41454
 Alpha virt. eigenvalues --    1.43285   1.43354   1.44979   1.45462   1.45875
 Alpha virt. eigenvalues --    1.47098   1.47538   1.48247   1.49259   1.49474
 Alpha virt. eigenvalues --    1.49892   1.52793   1.53193   1.53396   1.54290
 Alpha virt. eigenvalues --    1.55693   1.55951   1.56360   1.56586   1.60811
 Alpha virt. eigenvalues --    1.62178   1.63492   1.64965   1.65083   1.66287
 Alpha virt. eigenvalues --    1.67099   1.69132   1.69317   1.69932   1.70896
 Alpha virt. eigenvalues --    1.71697   1.72095   1.72762   1.73767   1.74050
 Alpha virt. eigenvalues --    1.74556   1.74884   1.75069   1.75766   1.76300
 Alpha virt. eigenvalues --    1.76674   1.76712   1.77139   1.78052   1.78241
 Alpha virt. eigenvalues --    1.79172   1.79372   1.80072   1.80556   1.80730
 Alpha virt. eigenvalues --    1.82540   1.83604   1.84317   1.85425   1.85895
[...]
 ! D54   D(15,2,8,30)            2.2245         -DE/DX =    0.0                 !
 ! D55   D(16,2,8,30)          169.8443         -DE/DX =    0.0                 !
 ! D56   D(3,2,9,31)           -99.3569         -DE/DX =    0.0                 !
 ! D57   D(6,2,9,31)           -41.4346         -DE/DX =    0.0                 !
 ! D58   D(8,2,9,31)            88.5819         -DE/DX =    0.0                 !
 ! D59   D(15,2,9,31)          169.8441         -DE/DX =    0.0                 !
 ! D60   D(16,2,9,31)            2.2244         -DE/DX =    0.0                 !
 ! D61   D(3,2,15,26)          -13.5477         -DE/DX =    0.0                 !
 ! D62   D(3,2,15,27)          173.0126         -DE/DX =    0.0                 !
 ! D63   D(6,2,15,26)          -95.2828         -DE/DX =    0.0                 !
 ! D64   D(6,2,15,27)           91.2775         -DE/DX =    0.0                 !
 ! D65   D(8,2,15,26)          173.5964         -DE/DX =    0.0                 !
 ! D66   D(8,2,15,27)            0.1568         -DE/DX =    0.0                 !
 ! D67   D(9,2,15,26)           79.2336         -DE/DX =    0.0                 !
 ! D68   D(9,2,15,27)          -94.2061         -DE/DX =    0.0                 !
 ! D69   D(16,2,15,26)         126.1166         -DE/DX =    0.0                 !
 ! D70   D(16,2,15,27)         -47.3231         -DE/DX =    0.0                 !
 ! D71   D(3,2,16,28)          -95.2828         -DE/DX =    0.0                 !
 ! D72   D(3,2,16,29)           91.2775         -DE/DX =    0.0                 !
 ! D73   D(6,2,16,28)          -13.5477         -DE/DX =    0.0                 !
 ! D74   D(6,2,16,29)          173.0126         -DE/DX =    0.0                 !
 ! D75   D(8,2,16,28)           79.2335         -DE/DX =    0.0                 !
 ! D76   D(8,2,16,29)          -94.2062         -DE/DX =    0.0                 !
 ! D77   D(9,2,16,28)          173.5964         -DE/DX =    0.0                 !
 ! D78   D(9,2,16,29)            0.1567         -DE/DX =    0.0                 !
 ! D79   D(15,2,16,28)         126.1166         -DE/DX =    0.0                 !
 ! D80   D(15,2,16,29)         -47.3231         -DE/DX =    0.0                 !
 ! D81   D(1,4,22,5)           176.7437         -DE/DX =    0.0                 !
 ! D82   D(1,4,22,21)           -3.8294         -DE/DX =    0.0                 !
 ! D83   D(1,7,25,10)          176.7445         -DE/DX =    0.0                 !
 ! D84   D(1,7,25,24)           -3.8296         -DE/DX =    0.0                 !
 ! D85   D(2,8,30,11)          176.7445         -DE/DX =    0.0                 !
 ! D86   D(2,8,30,27)           -3.8296         -DE/DX =    0.0                 !
 ! D87   D(2,9,31,12)          176.7437         -DE/DX =    0.0                 !
 ! D88   D(2,9,31,29)           -3.8294         -DE/DX =    0.0                 !
 ! D89   D(1,13,17,18)        -174.7387         -DE/DX =    0.0                 !
 ! D90   D(1,13,17,41)           5.0159         -DE/DX =    0.0                 !
 ! D91   D(21,13,17,18)         -1.7962         -DE/DX =    0.0                 !
 ! D92   D(21,13,17,41)        177.9584         -DE/DX =    0.0                 !
 ! D93   D(1,13,21,20)         176.1239         -DE/DX =    0.0                 !
 ! D94   D(1,13,21,22)          -2.1269         -DE/DX =    0.0                 !
 ! D95   D(17,13,21,20)          2.3542         -DE/DX =    0.0                 !
 ! D96   D(17,13,21,22)       -175.8966         -DE/DX =    0.0                 !
 ! D97   D(1,14,23,32)        -174.7386         -DE/DX =    0.0                 !
 ! D98   D(1,14,23,45)           5.016          -DE/DX =    0.0                 !
 ! D99   D(24,14,23,32)         -1.7962         -DE/DX =    0.0                 !
 ! D100  D(24,14,23,45)        177.9584         -DE/DX =    0.0                 !
 ! D101  D(1,14,24,25)          -2.1271         -DE/DX =    0.0                 !
 ! D102  D(1,14,24,33)         176.1239         -DE/DX =    0.0                 !
 ! D103  D(23,14,24,25)       -175.8968         -DE/DX =    0.0                 !
 ! D104  D(23,14,24,33)          2.3542         -DE/DX =    0.0                 !
 ! D105  D(2,15,26,34)        -174.7386         -DE/DX =    0.0                 !
 ! D106  D(2,15,26,46)           5.016          -DE/DX =    0.0                 !
 ! D107  D(27,15,26,34)         -1.7962         -DE/DX =    0.0                 !
 ! D108  D(27,15,26,46)        177.9584         -DE/DX =    0.0                 !
 ! D109  D(2,15,27,30)          -2.1271         -DE/DX =    0.0                 !
 ! D110  D(2,15,27,35)         176.1239         -DE/DX =    0.0                 !
 ! D111  D(26,15,27,30)       -175.8968         -DE/DX =    0.0                 !
 ! D112  D(26,15,27,35)          2.3542         -DE/DX =    0.0                 !
 ! D113  D(2,16,28,36)        -174.7387         -DE/DX =    0.0                 !
 ! D114  D(2,16,28,47)           5.0159         -DE/DX =    0.0                 !
 ! D115  D(29,16,28,36)         -1.7962         -DE/DX =    0.0                 !
 ! D116  D(29,16,28,47)        177.9584         -DE/DX =    0.0                 !
 ! D117  D(2,16,29,31)          -2.1269         -DE/DX =    0.0                 !
 ! D118  D(2,16,29,37)         176.1239         -DE/DX =    0.0                 !
 ! D119  D(28,16,29,31)       -175.8966         -DE/DX =    0.0                 !
 ! D120  D(28,16,29,37)          2.3542         -DE/DX =    0.0                 !
 ! D121  D(13,17,18,19)          0.2179         -DE/DX =    0.0                 !
 ! D122  D(13,17,18,42)        179.7718         -DE/DX =    0.0                 !
 ! D123  D(41,17,18,19)       -179.5153         -DE/DX =    0.0                 !
 ! D124  D(41,17,18,42)          0.0386         -DE/DX =    0.0                 !
 ! D125  D(17,18,19,20)          0.7953         -DE/DX =    0.0                 !
 ! D126  D(17,18,19,43)        179.9307         -DE/DX =    0.0                 !
 ! D127  D(42,18,19,20)       -178.7499         -DE/DX =    0.0                 !
 ! D128  D(42,18,19,43)          0.3855         -DE/DX =    0.0                 !
 ! D129  D(18,19,20,21)         -0.2825         -DE/DX =    0.0                 !
 ! D130  D(18,19,20,44)        178.6812         -DE/DX =    0.0                 !
 ! D131  D(43,19,20,21)       -179.4161         -DE/DX =    0.0                 !
 ! D132  D(43,19,20,44)         -0.4524         -DE/DX =    0.0                 !
 ! D133  D(19,20,21,13)         -1.2798         -DE/DX =    0.0                 !
 ! D134  D(19,20,21,22)        176.8091         -DE/DX =    0.0                 !
 ! D135  D(44,20,21,13)        179.6986         -DE/DX =    0.0                 !
 ! D136  D(44,20,21,22)         -2.2125         -DE/DX =    0.0                 !
 ! D137  D(13,21,22,4)           3.8681         -DE/DX =    0.0                 !
 ! D138  D(13,21,22,5)        -176.6605         -DE/DX =    0.0                 !
 ! D139  D(20,21,22,4)        -174.3382         -DE/DX =    0.0                 !
 ! D140  D(20,21,22,5)           5.1333         -DE/DX =    0.0                 !
 ! D141  D(14,23,32,38)          0.2179         -DE/DX =    0.0                 !
 ! D142  D(14,23,32,48)        179.7718         -DE/DX =    0.0                 !
 ! D143  D(45,23,32,38)       -179.5152         -DE/DX =    0.0                 !
 ! D144  D(45,23,32,48)          0.0386         -DE/DX =    0.0                 !
 ! D145  D(14,24,25,7)           3.8684         -DE/DX =    0.0                 !
 ! D146  D(14,24,25,10)       -176.6611         -DE/DX =    0.0                 !
 ! D147  D(33,24,25,7)        -174.338          -DE/DX =    0.0                 !
 ! D148  D(33,24,25,10)          5.1325         -DE/DX =    0.0                 !
 ! D149  D(14,24,33,38)         -1.2798         -DE/DX =    0.0                 !
 ! D150  D(14,24,33,49)        179.6985         -DE/DX =    0.0                 !
 ! D151  D(25,24,33,38)        176.8093         -DE/DX =    0.0                 !
 ! D152  D(25,24,33,49)         -2.2123         -DE/DX =    0.0                 !
 ! D153  D(15,26,34,39)          0.2179         -DE/DX =    0.0                 !
 ! D154  D(15,26,34,50)        179.7718         -DE/DX =    0.0                 !
 ! D155  D(46,26,34,39)       -179.5152         -DE/DX =    0.0                 !
 ! D156  D(46,26,34,50)          0.0386         -DE/DX =    0.0                 !
 ! D157  D(15,27,30,8)           3.8684         -DE/DX =    0.0                 !
 ! D158  D(15,27,30,11)       -176.6611         -DE/DX =    0.0                 !
 ! D159  D(35,27,30,8)        -174.338          -DE/DX =    0.0                 !
 ! D160  D(35,27,30,11)          5.1325         -DE/DX =    0.0                 !
 ! D161  D(15,27,35,39)         -1.2798         -DE/DX =    0.0                 !
 ! D162  D(15,27,35,51)        179.6985         -DE/DX =    0.0                 !
 ! D163  D(30,27,35,39)        176.8093         -DE/DX =    0.0                 !
 ! D164  D(30,27,35,51)         -2.2123         -DE/DX =    0.0                 !
 ! D165  D(16,28,36,40)          0.2179         -DE/DX =    0.0                 !
 ! D166  D(16,28,36,52)        179.7718         -DE/DX =    0.0                 !
 ! D167  D(47,28,36,40)       -179.5153         -DE/DX =    0.0                 !
 ! D168  D(47,28,36,52)          0.0386         -DE/DX =    0.0                 !
 ! D169  D(16,29,31,9)           3.8681         -DE/DX =    0.0                 !
 ! D170  D(16,29,31,12)       -176.6605         -DE/DX =    0.0                 !
 ! D171  D(37,29,31,9)        -174.3382         -DE/DX =    0.0                 !
 ! D172  D(37,29,31,12)          5.1333         -DE/DX =    0.0                 !
 ! D173  D(16,29,37,40)         -1.2798         -DE/DX =    0.0                 !
 ! D174  D(16,29,37,53)        179.6986         -DE/DX =    0.0                 !
 ! D175  D(31,29,37,40)        176.8091         -DE/DX =    0.0                 !
 ! D176  D(31,29,37,53)         -2.2125         -DE/DX =    0.0                 !
 ! D177  D(23,32,38,33)          0.7953         -DE/DX =    0.0                 !
 ! D178  D(23,32,38,54)        179.9307         -DE/DX =    0.0                 !
 ! D179  D(48,32,38,33)       -178.7499         -DE/DX =    0.0                 !
 ! D180  D(48,32,38,54)          0.3855         -DE/DX =    0.0                 !
 ! D181  D(24,33,38,32)         -0.2824         -DE/DX =    0.0                 !
 ! D182  D(24,33,38,54)       -179.4161         -DE/DX =    0.0                 !
 ! D183  D(49,33,38,32)        178.6813         -DE/DX =    0.0                 !
 ! D184  D(49,33,38,54)         -0.4524         -DE/DX =    0.0                 !
 ! D185  D(26,34,39,35)          0.7953         -DE/DX =    0.0                 !
 ! D186  D(26,34,39,55)        179.9307         -DE/DX =    0.0                 !
 ! D187  D(50,34,39,35)       -178.7499         -DE/DX =    0.0                 !
 ! D188  D(50,34,39,55)          0.3855         -DE/DX =    0.0                 !
 ! D189  D(27,35,39,34)         -0.2824         -DE/DX =    0.0                 !
 ! D190  D(27,35,39,55)       -179.4161         -DE/DX =    0.0                 !
 ! D191  D(51,35,39,34)        178.6813         -DE/DX =    0.0                 !
 ! D192  D(51,35,39,55)         -0.4524         -DE/DX =    0.0                 !
 ! D193  D(28,36,40,37)          0.7953         -DE/DX =    0.0                 !
 ! D194  D(28,36,40,56)        179.9307         -DE/DX =    0.0                 !
 ! D195  D(52,36,40,37)       -178.7499         -DE/DX =    0.0                 !
 ! D196  D(52,36,40,56)          0.3855         -DE/DX =    0.0                 !
 ! D197  D(29,37,40,36)         -0.2825         -DE/DX =    0.0                 !
 ! D198  D(29,37,40,56)       -179.4161         -DE/DX =    0.0                 !
 ! D199  D(53,37,40,36)        178.6812         -DE/DX =    0.0                 !
 ! D200  D(53,37,40,56)         -0.4524         -DE/DX =    0.0                 !
 --------------------------------------------------------------------------------
 GradGradGradGradGradGradGradGradGradGradGradGradGradGradGradGradGradGrad

 Stoichiometry    C24H16Mn2N4O10
 Framework group  C2[X(C24H16Mn2N4O10)]
 Deg. of freedom    82
 Full point group                 C2      NOp   2
 Largest Abelian subgroup         C2      NOp   2
 Largest concise Abelian subgroup C2      NOp   2
                         Standard orientation:                         
 ---------------------------------------------------------------------
 Center     Atomic      Atomic             Coordinates (Angstroms)
 Number     Number       Type             X           Y           Z
 ---------------------------------------------------------------------
      1         25           0       -0.000000    1.360948   -0.000000
      2         25           0       -0.000000   -1.360948   -0.000000
      3          8           0       -1.177177   -0.000000   -0.000001
      4          8           0        1.378934    2.679604    0.297457
      5          8           0        2.406265    3.902155    1.888574
      6          8           0        1.177177    0.000000   -0.000001
      7          8           0       -1.378935    2.679603   -0.297457
      8          8           0        1.378935   -2.679603   -0.297457
      9          8           0       -1.378934   -2.679604    0.297457
     10          8           0       -2.406259    3.902163   -1.888571
     11          8           0        2.406259   -3.902163   -1.888571
     12          8           0       -2.406265   -3.902155    1.888574
     13          7           0       -0.289608    1.655191    1.960916
     14          7           0        0.289608    1.655192   -1.960917
     15          7           0       -0.289608   -1.655192   -1.960917
     16          7           0        0.289608   -1.655191    1.960916
     17          6           0       -1.283563    1.136094    2.686182
     18          6           0       -1.447180    1.496443    4.017116
     19          6           0       -0.562663    2.411467    4.586343
     20          6           0        0.452244    2.955666    3.807387
     21          6           0        0.548992    2.558074    2.483021
     22          6           0        1.557937    3.120840    1.509026
     23          6           0        1.283563    1.136097   -2.686184
     24          6           0       -0.548991    2.558077   -2.483021
     25          6           0       -1.557939    3.120839   -1.509026
     26          6           0       -1.283563   -1.136097   -2.686184
     27          6           0        0.548991   -2.558077   -2.483021
     28          6           0        1.283563   -1.136094    2.686182
     29          6           0       -0.548992   -2.558074    2.483021
     30          6           0        1.557939   -3.120839   -1.509026
     31          6           0       -1.557937   -3.120840    1.509026
     32          6           0        1.447180    1.496448   -4.017117
     33          6           0       -0.452243    2.955671   -3.807385
     34          6           0       -1.447180   -1.496448   -4.017117
     35          6           0        0.452243   -2.955671   -3.807385
     36          6           0        1.447180   -1.496443    4.017116
     37          6           0       -0.452244   -2.955666    3.807387
     38          6           0        0.562665    2.411474   -4.586342
     39          6           0       -0.562665   -2.411474   -4.586342
     40          6           0        0.562663   -2.411467    4.586343
     41          1           0       -1.929967    0.438153    2.163392
     42          1           0       -2.262074    1.067852    4.589989
     43          1           0       -0.675606    2.706164    5.625588
     44          1           0        1.163872    3.687395    4.174294
     45          1           0        1.929966    0.438155   -2.163395
     46          1           0       -1.929966   -0.438155   -2.163395
     47          1           0        1.929967   -0.438153    2.163392
     48          1           0        2.262074    1.067858   -4.589990
     49          1           0       -1.163872    3.687400   -4.174292
     50          1           0       -2.262074   -1.067858   -4.589990
     51          1           0        1.163872   -3.687400   -4.174292
     52          1           0        2.262074   -1.067852    4.589989
     53          1           0       -1.163872   -3.687395    4.174294
     54          1           0        0.675608    2.706172   -5.625587
     55          1           0       -0.675608   -2.706172   -5.625587
     56          1           0        0.675606   -2.706164    5.625588
 ---------------------------------------------------------------------
 Rotational constants (GHZ):      0.1135825      0.1030927      0.0672737
 1\1\GINC-CRUSHER-N022\FOpt\UPBE1PBE\Gen\C24H16Mn2N4O10\ROOT\01-Dec-202
 0\0\\# opt upbe1pbe/gen geom=(allcheck) pseudo=read guess=read\\JAVYEK
 \\0,1\Mn,0.0000001673,1.3609484264,-0.0000004185\Mn,-0.0000001673,-1.3
 609484264,-0.0000004186\O,-1.1771767547,0.0000000373,-0.000000529\O,1.
 3789345189,2.6796036018,0.2974572302\O,2.4062652865,3.9021542317,1.888
 5741349\O,1.1771767547,-0.0000000373,-0.000000529\O,-1.3789344091,2.67
 96035964,-0.2974571081\O,1.3789344091,-2.6796035964,-0.2974571084\O,-1
 .3789345189,-2.6796036019,0.29745723\O,-2.4062588803,3.9021635015,-1.8
 8857114\O,2.4062588803,-3.9021635013,-1.8885711404\O,-2.4062652865,-3.
 9021542319,1.8885741345\N,-0.2896076212,1.6551905382,1.9609164169\N,0.
 2896082071,1.6551923248,-1.9609171269\N,-0.2896082072,-1.6551923246,-1
 .960917127\N,0.2896076211,-1.6551905384,1.9609164167\C,-1.2835628454,1
 .1360942125,2.6861825667\C,-1.4471795754,1.496443184,4.0171161371\C,-0
 .5626630414,2.4114669564,4.5863428808\C,0.4522440152,2.9556658641,3.80
 73866798\C,0.5489919932,2.558074405,2.4830210675\C,1.55793724,3.120839
 5398,1.5090262439\C,1.283563017,1.136096705,-2.6861837738\C,-0.5489908
 441,2.5580773378,-2.483020551\C,-1.5579386714,3.1208386983,-1.50902628
 01\C,-1.2835630171,-1.1360967047,-2.6861837739\C,0.5489908441,-2.55807
 73376,-2.4830205513\C,1.2835628454,-1.1360942128,2.6861825666\C,-0.548
 9919932,-2.5580744053,2.4830210672\C,1.5579386714,-3.1208386982,-1.509
 0262804\C,-1.55793724,-3.1208395399,1.5090262436\C,1.4471805571,1.4964
 479765,-4.0171165282\C,-0.4522421401,2.955671393,-3.8073853954\C,-1.44
 71805571,-1.4964479761,-4.0171165284\C,0.4522421401,-2.9556713926,-3.8
 073853957\C,1.4471795754,-1.4964431844,4.0171161369\C,-0.4522440152,-2
 .9556658644,3.8073866795\C,0.56266511,2.411473528,-4.5863421111\C,-0.5
 626651101,-2.4114735275,-4.5863421113\C,0.5626630414,-2.4114669568,4.5
 863428806\H,-1.9299664705,0.4381534073,2.1633921567\H,-2.2620736619,1.
 0678524408,4.5899890917\H,-0.67560595,2.7061637224,5.6255883592\H,1.16
 38729499,3.6873945241,4.1742935827\H,1.9299661979,0.4381550269,-2.1633
 946223\H,-1.9299661979,-0.4381550267,-2.1633946224\H,1.9299664705,-0.4
 381534075,2.1633921566\H,2.2620746053,1.0678578323,-4.5899898448\H,-1.
 1638711173,3.6874005605,-4.1742915094\H,-2.2620746053,-1.0678578318,-4
 .5899898449\H,1.1638711173,-3.6874005601,-4.1742915098\H,2.2620736619,
 -1.0678524412,4.5899890916\H,-1.1638729499,-3.6873945246,4.1742935823\
 H,0.6756085932,2.7061720892,-5.6255870685\H,-0.6756085932,-2.706172088
 6,-5.6255870688\H,0.67560595,-2.7061637229,5.6255883589\\Version=EM64L
 -G09RevA.02\HF=-2102.2586384\S2=3.079595\S2-1=0.\S2A=9.297396\RMSD=1.6
 11e-09\RMSF=1.158e-06\Dipole=0.0000002,0.0000005,-0.0000048\Quadrupole
 =-27.2799382,-44.165942,71.4458802,0.0000049,-0.0000007,-0.0000005\PG=
 C02 [X(C24H16Mn2N4O10)]\\@


 GARBAGE IN, GARBAGE OUT
 Job cpu time:  0 days  0 hours 52 minutes 28.0 seconds.
 File lengths (MBytes):  RWF=    464 Int=      0 D2E=      0 Chk=    121 Scr=      1
 Normal termination of Gaussian 09 at Tue Dec  1 12:22:26 2020.
