 Entering Gaussian System, Link 0=g09
 Input=antifer_guess.com
 Output=antifer_guess.out
 Initial command:
 /home/support/apps/apps/gaussian/intel/15.0.6/g09/l1.exe /tmp/Gau-30924.inp -scrdir=/tmp/
 Entering Link 1 = /home/support/apps/apps/gaussian/intel/15.0.6/g09/l1.exe PID=     30925.
  
 Copyright (c) 1988,1990,1992,1993,1995,1998,2003,2009, Gaussian, Inc.
                  All Rights Reserved.
  
 This is part of the Gaussian(R) 09 program.  It is based on
 the Gaussian(R) 03 system (copyright 2003, Gaussian, Inc.),
 the Gaussian(R) 98 system (copyright 1998, Gaussian, Inc.),
 the Gaussian(R) 94 system (copyright 1995, Gaussian, Inc.),
 the Gaussian 92(TM) system (copyright 1992, Gaussian, Inc.),
 the Gaussian 90(TM) system (copyright 1990, Gaussian, Inc.),
 the Gaussian 88(TM) system (copyright 1988, Gaussian, Inc.),
 the Gaussian 86(TM) system (copyright 1986, Carnegie Mellon
 University), and the Gaussian 82(TM) system (copyright 1983,
 Carnegie Mellon University). Gaussian is a federally registered
 trademark of Gaussian, Inc.
  
 This software contains proprietary and confidential information,
 including trade secrets, belonging to Gaussian, Inc.
  
 This software is provided under written license and may be
 used, copied, transmitted, or stored only in accord with that
 written license.
  
 The following legend is applicable only to US Government
 contracts under FAR:
  
                    RESTRICTED RIGHTS LEGEND
  
 Use, reproduction and disclosure by the US Government is
 subject to restrictions as set forth in subparagraphs (a)
 and (c) of the Commercial Computer Software - Restricted
 Rights clause in FAR 52.227-19.
  
 Gaussian, Inc.
 340 Quinnipiac St., Bldg. 40, Wallingford CT 06492
  
  
 ---------------------------------------------------------------
 Warning -- This program may not be used in any manner that
 competes with the business of Gaussian, Inc. or will provide
 assistance to any competitor of Gaussian, Inc.  The licensee
 of this program is prohibited from giving any competitor of
 Gaussian, Inc. access to this program.  By using this program,
 the user acknowledges that Gaussian, Inc. is engaged in the
 business of creating and licensing software in the field of
 computational chemistry and represents and warrants to the
 licensee that it is not a competitor of Gaussian, Inc. and that
 it will not use this program in any manner prohibited above.
 ---------------------------------------------------------------
  

 Cite this work as:
 Gaussian 09, Revision A.02,
 M. J. Frisch, G. W. Trucks, H. B. Schlegel, G. E. Scuseria, 
 M. A. Robb, J. R. Cheeseman, G. Scalmani, V. Barone, B. Mennucci, 
 G. A. Petersson, H. Nakatsuji, M. Caricato, X. Li, H. P. Hratchian, 
 A. F. Izmaylov, J. Bloino, G. Zheng, J. L. Sonnenberg, M. Hada, 
 M. Ehara, K. Toyota, R. Fukuda, J. Hasegawa, M. Ishida, T. Nakajima, 
 Y. Honda, O. Kitao, H. Nakai, T. Vreven, J. A. Montgomery, Jr., 
 J. E. Peralta, F. Ogliaro, M. Bearpark, J. J. Heyd, E. Brothers, 
 K. N. Kudin, V. N. Staroverov, R. Kobayashi, J. Normand, 
 K. Raghavachari, A. Rendell, J. C. Burant, S. S. Iyengar, J. Tomasi, 
 M. Cossi, N. Rega, J. M. Millam, M. Klene, J. E. Knox, J. B. Cross, 
 V. Bakken, C. Adamo, J. Jaramillo, R. Gomperts, R. E. Stratmann, 
 O. Yazyev, A. J. Austin, R. Cammi, C. Pomelli, J. W. Ochterski, 
 R. L. Martin, K. Morokuma, V. G. Zakrzewski, G. A. Voth, 
 P. Salvador, J. J. Dannenberg, S. Dapprich, A. D. Daniels, 
 O. Farkas, J. B. Foresman, J. V. Ortiz, J. Cioslowski, 
 and D. J. Fox, Gaussian, Inc., Wallingford CT, 2009.
 
 ******************************************
 Gaussian 09:  EM64L-G09RevA.02 11-Jun-2009
                29-Nov-2020 
 ******************************************
 %nprocshared=16
 Will use up to   16 processors via shared memory.
 %mem=50000MB
 %chk=antiferro.chk
 ----------------------------------------------------------------------
 # upbe1pbe/gen guess=(only,fragment=3) geom=connectivity pop=minimal p
 seudo=read
 ----------------------------------------------------------------------
 1/38=1,57=2,62=2003/1;
 2/12=2,17=6,18=5,40=1/2;
 1/38=1,53=4172,62=2003/22;
 3/5=7,11=2,16=1,17=8,25=1,30=1,74=-13,89=1,116=2/1,2;
 4//1;
 6/7=2,8=2,9=2,10=2,11=2,28=1/1;
 1/53=3042,62=2003,63=1/22;
 3/5=7,6=11,11=2,16=1,17=8,25=1,30=1,74=-13,82=7,89=1,116=2/1,2;
 4//1;
 6/7=2,8=2,9=2,10=2,11=2,28=1/1;
 1/53=2032,62=2003,63=2/22;
 3/5=7,6=11,11=2,16=1,17=8,25=1,30=1,74=-13,82=7,89=1,116=2/1,2;
 4//1;
 6/7=2,8=2,9=2,10=2,11=2,28=1/1;
 1/53=1022,62=2003,63=3/22;
 3/5=7,6=11,11=2,16=1,17=8,25=1,30=1,74=-13,82=7,89=1,116=2/1,2;
 4//1;
 6/7=2,8=2,9=2,10=2,11=2,28=1/1;
 1/53=4014,62=2003,63=7/22;
 99/5=5/99;
 ------
 JAVYEK
 ------
 Symbolic Z-matrix:
 Charge and multiplicity card seems defective:
 Charge =  0 Multiplicity = 1 in supermolecule
 Charge = -8 Multiplicity = 1 in fragment  1.
 Charge =  4 Multiplicity = 4 in fragment  2.
 Charge =  4 Multiplicity =-4 in fragment  3.
 Mn(Fragment=2)       -1.35727   0.        0. 
 Mn(Fragment=3)        1.35727  0.         0. 
 O(Fragment=1)         0.        1.19323   0. 
 O(Fragment=1)        -2.68333  -1.37218  -0.30098 
 O(Fragment=1)        -3.90343  -2.39661  -1.8959 
 O(Fragment=1)        0.        -1.19323   0. 
 O(Fragment=1)        -2.68333   1.37219   0.30098 
 O(Fragment=1)         2.68333  -1.37219   0.30098 
 O(Fragment=1)         2.68333   1.37218  -0.30098 
 O(Fragment=1)        -3.90341   2.39663   1.89591 
 O(Fragment=1)         3.90341  -2.39663   1.89591 
 O(Fragment=1)         3.90343   2.39661  -1.8959 
 N(Fragment=1)        -1.64657   0.29144  -1.96304 
 N(Fragment=1)        -1.64657  -0.29144   1.96304 
 N(Fragment=1)         1.64657   0.29144   1.96304 
 N(Fragment=1)         1.64657  -0.29144  -1.96304 
 C(Fragment=1)        -1.12507   1.28624  -2.68533 
 C(Fragment=1)        -1.48384   1.45288  -4.01627 
 C(Fragment=1)        -2.39979   0.57082  -4.58795 
 C(Fragment=1)        -2.94732  -0.44415  -3.81137 
 C(Fragment=1)        -2.5515   -0.54398  -2.48668 
 C(Fragment=1)        -3.12053  -1.55085  -1.5139 
 C(Fragment=1)        -1.12507  -1.28624   2.68533 
 C(Fragment=1)        -2.55149   0.54399   2.48668 
 C(Fragment=1)        -3.12053   1.55086   1.5139 
 C(Fragment=1)         1.12507   1.28624   2.68533 
 C(Fragment=1)         2.55149  -0.54399   2.48668 
 C(Fragment=1)         1.12507  -1.28624  -2.68533 
 C(Fragment=1)         2.5515    0.54398  -2.48668 
 C(Fragment=1)         3.12053  -1.55086   1.5139 
 C(Fragment=1)         3.12053   1.55085  -1.5139 
 C(Fragment=1)        -1.48384  -1.45287   4.01628 
 C(Fragment=1)        -2.94731   0.44416   3.81137 
 C(Fragment=1)         1.48384   1.45287   4.01628 
 C(Fragment=1)         2.94731  -0.44416   3.81137 
 C(Fragment=1)         1.48384  -1.45288  -4.01627 
 C(Fragment=1)         2.94732   0.44415  -3.81137 
 C(Fragment=1)        -2.39978  -0.5708    4.58796 
 C(Fragment=1)         2.39978   0.5708    4.58796 
 C(Fragment=1)         2.39979  -0.57082  -4.58795 
 H(Fragment=1)        -0.42716   1.93015  -2.15916 
 H(Fragment=1)        -1.05357   2.26821  -4.58727 
 H(Fragment=1)        -2.69316   0.68612  -5.62732 
 H(Fragment=1)        -3.68071  -1.15307  -4.18018 
 H(Fragment=1)        -0.42716  -1.93014   2.15916 
 H(Fragment=1)         0.42716   1.93014   2.15916 
 H(Fragment=1)         0.42716  -1.93015  -2.15916 
 H(Fragment=1)        -1.05357  -2.2682    4.58727 
 H(Fragment=1)        -3.6807    1.15308   4.18018 
 H(Fragment=1)         1.05357   2.2682    4.58727 
 H(Fragment=1)         3.6807   -1.15308   4.18018 
 H(Fragment=1)         1.05357  -2.26821  -4.58727 
 H(Fragment=1)         3.68071   1.15307  -4.18018 
 H(Fragment=1)        -2.69315  -0.6861    5.62733 
 H(Fragment=1)         2.69315   0.6861    5.62733 
 H(Fragment=1)         2.69316  -0.68612  -5.62732 
 
 Stoichiometry    C24H16Mn2N4O10
 Framework group  C2[X(C24H16Mn2N4O10)]
 Deg. of freedom    82
 Full point group                 C2      NOp   2
 Largest Abelian subgroup         C2      NOp   2
 Largest concise Abelian subgroup C2      NOp   2
                         Standard orientation:                         
 ---------------------------------------------------------------------
 Center     Atomic      Atomic             Coordinates (Angstroms)
 Number     Number       Type             X           Y           Z
 ---------------------------------------------------------------------
      1         25           0        1.357267   -0.000000    0.000000
      2         25           0       -1.357267    0.000000    0.000000
      3          8           0        0.000000   -1.193234   -0.000000
      4          8           0        2.683326    1.372188   -0.300979
      5          8           0        3.903421    2.396617   -1.895904
      6          8           0        0.000000    1.193234   -0.000000
      7          8           0        2.683327   -1.372187    0.300978
      8          8           0       -2.683327    1.372187    0.300978
      9          8           0       -2.683326   -1.372188   -0.300979
     10          8           0        3.903409   -2.396626    1.895905
     11          8           0       -3.903409    2.396626    1.895905
     12          8           0       -3.903421   -2.396617   -1.895904
     13          7           0        1.646571   -0.291438   -1.963043
     14          7           0        1.646572    0.291438    1.963042
     15          7           0       -1.646572   -0.291438    1.963042
     16          7           0       -1.646571    0.291438   -1.963043
     17          6           0        1.125070   -1.286239   -2.685326
     18          6           0        1.483839   -1.452877   -4.016274
     19          6           0        2.399787   -0.570811   -4.587954
     20          6           0        2.947315    0.444153   -3.811365
     21          6           0        2.551494    0.543987   -2.486683
     22          6           0        3.120527    1.550857   -1.513903
     23          6           0        1.125068    1.286237    2.685327
     24          6           0        2.551492   -0.543990    2.486683
     25          6           0        3.120533   -1.550853    1.513900
     26          6           0       -1.125068   -1.286237    2.685327
     27          6           0       -2.551492    0.543990    2.486683
     28          6           0       -1.125070    1.286239   -2.685326
     29          6           0       -2.551494   -0.543987   -2.486683
     30          6           0       -3.120533    1.550853    1.513900
     31          6           0       -3.120527   -1.550857   -1.513903
     32          6           0        1.483834    1.452871    4.016276
     33          6           0        2.947311   -0.444158    3.811365
     34          6           0       -1.483834   -1.452871    4.016276
     35          6           0       -2.947311    0.444158    3.811365
     36          6           0       -1.483839    1.452877   -4.016274
     37          6           0       -2.947315   -0.444153   -3.811365
     38          6           0        2.399780    0.570804    4.587956
     39          6           0       -2.399780   -0.570804    4.587956
     40          6           0       -2.399787    0.570811   -4.587954
     41          1           0        0.427159   -1.930145   -2.159159
     42          1           0        1.053575   -2.268207   -4.587267
     43          1           0        2.693157   -0.686113   -5.627322
     44          1           0        3.680705    1.153071   -4.180184
     45          1           0        0.427158    1.930144    2.159160
     46          1           0       -0.427158   -1.930144    2.159160
     47          1           0       -0.427159    1.930145   -2.159159
     48          1           0        1.053568    2.268200    4.587270
     49          1           0        3.680701   -1.153076    4.180185
     50          1           0       -1.053568   -2.268200    4.587270
     51          1           0       -3.680701    1.153076    4.180185
     52          1           0       -1.053575    2.268207   -4.587267
     53          1           0       -3.680705   -1.153071   -4.180184
     54          1           0        2.693149    0.686105    5.627325
     55          1           0       -2.693149   -0.686105    5.627325
     56          1           0       -2.693157    0.686113   -5.627322
 ---------------------------------------------------------------------
 Rotational constants (GHZ):      0.1139439      0.1030343      0.0673232
 Mismatch for IA=    1 IOp=  2 Frag= 2 JA=    2 Frag= 3
 Mismatch for IA=    2 IOp=  2 Frag= 3 JA=    1 Frag= 2
 Symmetry turned off in CkCPSy: fragments do not conform to real system point group.
 General basis read from cards:  (5D, 7F)
 ======================================================================================================
                                       Pseudopotential Parameters
 ======================================================================================================
  Center     Atomic      Valence      Angular      Power
  Number     Number     Electrons     Momentum     of R      Exponent        Coefficient   SO-Coeffient
 ======================================================================================================
    1         25           15
                                      F and up 
                                                     2        1.0000000        0.00000000    0.00000000
                                      S - F
                                                     2       18.5200000      226.43090200    0.00000000
                                                     2        8.3730000       30.35907200    0.00000000
                                      P - F
                                                     2       18.9200000      142.15470500    0.00000000
                                                     2        8.0170000       21.53650900    0.00000000
                                      D - F
                                                     2       22.7200000      -22.56811900    0.00000000
                                                     2        7.6400000       -1.20581000    0.00000000
    2         25           15
                                      F and up 
                                                     2        1.0000000        0.00000000    0.00000000
                                      S - F
                                                     2       18.5200000      226.43090200    0.00000000
                                                     2        8.3730000       30.35907200    0.00000000
                                      P - F
                                                     2       18.9200000      142.15470500    0.00000000
                                                     2        8.0170000       21.53650900    0.00000000
                                      D - F
                                                     2       22.7200000      -22.56811900    0.00000000
                                                     2        7.6400000       -1.20581000    0.00000000
    3          8
                                   No pseudopotential on this center.
    4          8
                                   No pseudopotential on this center.
    5          8
                                   No pseudopotential on this center.
    6          8
                                   No pseudopotential on this center.
    7          8
                                   No pseudopotential on this center.
    8          8
                                   No pseudopotential on this center.
    9          8
                                   No pseudopotential on this center.
   10          8
                                   No pseudopotential on this center.
   11          8
                                   No pseudopotential on this center.
   12          8
                                   No pseudopotential on this center.
   13          7
                                   No pseudopotential on this center.
   14          7
                                   No pseudopotential on this center.
   15          7
                                   No pseudopotential on this center.
   16          7
                                   No pseudopotential on this center.
   17          6
                                   No pseudopotential on this center.
   18          6
                                   No pseudopotential on this center.
   19          6
                                   No pseudopotential on this center.
   20          6
                                   No pseudopotential on this center.
   21          6
                                   No pseudopotential on this center.
   22          6
                                   No pseudopotential on this center.
   23          6
                                   No pseudopotential on this center.
   24          6
                                   No pseudopotential on this center.
   25          6
                                   No pseudopotential on this center.
   26          6
                                   No pseudopotential on this center.
   27          6
                                   No pseudopotential on this center.
   28          6
                                   No pseudopotential on this center.
   29          6
                                   No pseudopotential on this center.
   30          6
                                   No pseudopotential on this center.
   31          6
                                   No pseudopotential on this center.
   32          6
                                   No pseudopotential on this center.
   33          6
                                   No pseudopotential on this center.
   34          6
                                   No pseudopotential on this center.
   35          6
                                   No pseudopotential on this center.
   36          6
                                   No pseudopotential on this center.
   37          6
                                   No pseudopotential on this center.
   38          6
                                   No pseudopotential on this center.
   39          6
                                   No pseudopotential on this center.
   40          6
                                   No pseudopotential on this center.
   41          1
                                   No pseudopotential on this center.
   42          1
                                   No pseudopotential on this center.
   43          1
                                   No pseudopotential on this center.
   44          1
                                   No pseudopotential on this center.
   45          1
                                   No pseudopotential on this center.
   46          1
                                   No pseudopotential on this center.
   47          1
                                   No pseudopotential on this center.
   48          1
                                   No pseudopotential on this center.
   49          1
                                   No pseudopotential on this center.
   50          1
                                   No pseudopotential on this center.
   51          1
                                   No pseudopotential on this center.
   52          1
                                   No pseudopotential on this center.
   53          1
                                   No pseudopotential on this center.
   54          1
                                   No pseudopotential on this center.
   55          1
                                   No pseudopotential on this center.
   56          1
                                   No pseudopotential on this center.
 ======================================================================================================
 Integral buffers will be    131072 words long.
 Raffenetti 2 integral format.
 Two-electron integral symmetry is turned off.
   698 basis functions,  1326 primitive gaussians,   748 cartesian basis functions
   149 alpha electrons      149 beta electrons
       nuclear repulsion energy      5586.6818583585 Hartrees.
 NAtoms=   56 NActive=   56 NUniq=   56 SFac= 7.50D-01 NAtFMM=   80 NAOKFM=F Big=F
 One-electron integrals computed using PRISM.
   1 Symmetry operations used in ECPInt.
 ECPInt:  NShTT=   26565 NPrTT=  147907 LenC2=   21062 LenP2D=   62898.
 LDataN:  DoStor=T MaxTD1= 6 Len=  172
 NBasis=   698 RedAO= T  NBF=   698
 NBsUse=   698 1.00D-06 NBFU=   698
 Harris functional with IExCor= 1009 diagonalized for initial guess.
 ExpMin= 1.00D-02 ExpMax= 5.48D+03 ExpMxC= 8.25D+02 IAcc=3 IRadAn=         0 AccDes= 0.00D+00
 HarFok:  IExCor= 1009 AccDes= 0.00D+00 IRadAn=         0 IDoV= 1
 ScaDFX=  1.000000  1.000000  1.000000  1.000000
 FoFCou: FMM=F IPFlag=           0 FMFlag=      100000 FMFlg1=           0
         NFxFlg=           0 DoJE=T BraDBF=F KetDBF=T FulRan=T
         Omega=  0.000000  0.000000  1.000000  0.000000  0.000000 ICntrl=     500 IOpCl=  0
         NMat0=    1 NMatS0=    1 NMatT0=    0 NMatD0=    1 NMtDS0=    0 NMtDT0=    0
         I1Cent=           4 NGrid=           0.
 Symmetry not used in FoFCou.
 Initial guess <Sx>= 0.0000 <Sy>= 0.0000 <Sz>= 0.0000 <S**2>=-0.0000 S=-0.0000

 **********************************************************************

            Population analysis using the SCF density.

 **********************************************************************

 Alpha  occ. eigenvalues --  -18.92469 -18.92464 -18.92234 -18.92234 -18.92233
 Alpha  occ. eigenvalues --  -18.92233 -18.92147 -18.92146 -18.92143 -18.92143
 Alpha  occ. eigenvalues --  -14.15940 -14.15938 -14.15938 -14.15937 -10.09799
 Alpha  occ. eigenvalues --  -10.09799 -10.09799 -10.09798 -10.09770 -10.09769
 Alpha  occ. eigenvalues --  -10.09769 -10.09769 -10.09743 -10.09743 -10.09743
 Alpha  occ. eigenvalues --  -10.09743 -10.08435 -10.08433 -10.08432 -10.08431
 Alpha  occ. eigenvalues --  -10.07645 -10.07643 -10.07643 -10.07642 -10.05805
 Alpha  occ. eigenvalues --  -10.05804 -10.05803 -10.05803  -3.12982  -3.12942
 Alpha  occ. eigenvalues --   -1.92273  -1.91676  -1.91631  -1.91522  -1.91427
 Alpha  occ. eigenvalues --   -1.91393  -1.09727  -1.09709  -1.09578  -1.09577
 Alpha  occ. eigenvalues --   -1.02882  -1.02673  -1.02197  -1.02197  -0.99246
 Alpha  occ. eigenvalues --   -0.99206  -0.99028  -0.98960  -0.97840  -0.95582
 Alpha  occ. eigenvalues --   -0.86970  -0.86947  -0.86927  -0.86872  -0.82838
 Alpha  occ. eigenvalues --   -0.82838  -0.82826  -0.82806  -0.71208  -0.71193
 Alpha  occ. eigenvalues --   -0.71149  -0.71045  -0.70368  -0.70315  -0.70269
 Alpha  occ. eigenvalues --   -0.70238  -0.62773  -0.62616  -0.62288  -0.62193
 Alpha  occ. eigenvalues --   -0.59750  -0.59290  -0.58255  -0.58226  -0.58194
 Alpha  occ. eigenvalues --   -0.58185  -0.58179  -0.58066  -0.54963  -0.54743
 Alpha  occ. eigenvalues --   -0.54640  -0.54637  -0.52083  -0.52042  -0.51914
 Alpha  occ. eigenvalues --   -0.51905  -0.51802  -0.51699  -0.51616  -0.51591
 Alpha  occ. eigenvalues --   -0.50251  -0.50234  -0.49685  -0.49604  -0.49599
 Alpha  occ. eigenvalues --   -0.49080  -0.49071  -0.48357  -0.47550  -0.46355
 Alpha  occ. eigenvalues --   -0.46286  -0.46269  -0.46065  -0.46026  -0.45612
 Alpha  occ. eigenvalues --   -0.45341  -0.45304  -0.45001  -0.44575  -0.42216
 Alpha  occ. eigenvalues --   -0.41963  -0.41958  -0.40653  -0.39924  -0.39235
 Alpha  occ. eigenvalues --   -0.39210  -0.39157  -0.39032  -0.38855  -0.38504
 Alpha  occ. eigenvalues --   -0.37776  -0.37574  -0.37392  -0.37089  -0.37055
 Alpha  occ. eigenvalues --   -0.36844  -0.36723  -0.36509  -0.35471  -0.35403
 Alpha  occ. eigenvalues --   -0.35400  -0.35310  -0.34565  -0.34495  -0.34489
 Alpha  occ. eigenvalues --   -0.34463  -0.21975  -0.21052  -0.20016
 Alpha virt. eigenvalues --   -0.19896  -0.19845  -0.18626  -0.17157  -0.17130
 Alpha virt. eigenvalues --   -0.17079  -0.16508  -0.15713  -0.15690  -0.15501
 Alpha virt. eigenvalues --   -0.15359  -0.11373  -0.10923  -0.09489  -0.09477
 Alpha virt. eigenvalues --   -0.06697  -0.06653  -0.06648  -0.06530  -0.04166
 Alpha virt. eigenvalues --   -0.02362  -0.00872  -0.00831   0.00795   0.01178
 Alpha virt. eigenvalues --    0.01471   0.01485   0.01636   0.01639   0.01833
 Alpha virt. eigenvalues --    0.02270   0.03089   0.03142   0.03607   0.03788
 Alpha virt. eigenvalues --    0.03908   0.05317   0.06258   0.07105   0.07225
 Alpha virt. eigenvalues --    0.07391   0.07458   0.07952   0.08168   0.08880
 Alpha virt. eigenvalues --    0.09695   0.09736   0.10401   0.11024   0.11360
 Alpha virt. eigenvalues --    0.11366   0.11676   0.11700   0.12731   0.12780
 Alpha virt. eigenvalues --    0.13419   0.14766   0.15106   0.16078   0.16171
 Alpha virt. eigenvalues --    0.16211   0.16496   0.16642   0.16727   0.17000
 Alpha virt. eigenvalues --    0.17782   0.18045   0.18152   0.18227   0.18901
 Alpha virt. eigenvalues --    0.19533   0.20362   0.21001   0.21072   0.21911
 Alpha virt. eigenvalues --    0.22093   0.22495   0.22768   0.22987   0.23565
 Alpha virt. eigenvalues --    0.24177   0.24684   0.25681   0.26415   0.26525
 Alpha virt. eigenvalues --    0.26562   0.27250   0.29040   0.29094   0.29653
 Alpha virt. eigenvalues --    0.31793   0.32265   0.33728   0.34660   0.35870
 Alpha virt. eigenvalues --    0.35922   0.36526   0.36741   0.36763   0.36969
 Alpha virt. eigenvalues --    0.37644   0.37753   0.39094   0.40234   0.40409
 Alpha virt. eigenvalues --    0.40584   0.41694   0.41882   0.41900   0.42699
 Alpha virt. eigenvalues --    0.43267   0.43583   0.45963   0.46014   0.46033
 Alpha virt. eigenvalues --    0.46170   0.46527   0.46712   0.47055   0.47613
 Alpha virt. eigenvalues --    0.47953   0.48003   0.48021   0.48535   0.49441
 Alpha virt. eigenvalues --    0.49830   0.49834   0.49916   0.50700   0.52400
 Alpha virt. eigenvalues --    0.52812   0.52872   0.52903   0.53010   0.53033
 Alpha virt. eigenvalues --    0.53210   0.53656   0.54717   0.55206   0.55564
 Alpha virt. eigenvalues --    0.57124   0.57786   0.57798   0.59909   0.60242
 Alpha virt. eigenvalues --    0.60559   0.60905   0.61498   0.62701   0.63958
 Alpha virt. eigenvalues --    0.64170   0.64806   0.65000   0.65044   0.65184
 Alpha virt. eigenvalues --    0.65315   0.65352   0.65959   0.66184   0.66337
 Alpha virt. eigenvalues --    0.67393   0.67684   0.68328   0.69111   0.69289
 Alpha virt. eigenvalues --    0.69473   0.70451   0.70935   0.71308   0.71330
 Alpha virt. eigenvalues --    0.71331   0.72286   0.73372   0.73589   0.73889
 Alpha virt. eigenvalues --    0.75706   0.76810   0.76962   0.77055   0.77426
 Alpha virt. eigenvalues --    0.79012   0.79178   0.79479   0.80328   0.80950
 Alpha virt. eigenvalues --    0.81008   0.81169   0.82504   0.83220   0.83887
 Alpha virt. eigenvalues --    0.84146   0.84320   0.84880   0.85760   0.87009
 Alpha virt. eigenvalues --    0.87409   0.87775   0.87958   0.88325   0.89121
 Alpha virt. eigenvalues --    0.89791   0.90121   0.91092   0.91111   0.91697
 Alpha virt. eigenvalues --    0.92465   0.92466   0.92729   0.94463   0.94465
 Alpha virt. eigenvalues --    0.94932   0.95226   0.95915   0.97409   0.97730
 Alpha virt. eigenvalues --    0.98171   1.00116   1.00712   1.01164   1.01610
 Alpha virt. eigenvalues --    1.01772   1.02015   1.02537   1.02723   1.03120
 Alpha virt. eigenvalues --    1.03461   1.03750   1.04175   1.05283   1.05983
 Alpha virt. eigenvalues --    1.06227   1.06688   1.07823   1.08421   1.08451
 Alpha virt. eigenvalues --    1.08910   1.10503   1.11593   1.11652   1.12087
 Alpha virt. eigenvalues --    1.12449   1.12720   1.13491   1.14459   1.15086
 Alpha virt. eigenvalues --    1.16414   1.16521   1.16600   1.16752   1.17058
 Alpha virt. eigenvalues --    1.17455   1.18516   1.18661   1.18988   1.19309
 Alpha virt. eigenvalues --    1.20448   1.20594   1.21078   1.21168   1.21587
 Alpha virt. eigenvalues --    1.21868   1.22247   1.22689   1.23312   1.23678
 Alpha virt. eigenvalues --    1.24987   1.25257   1.25426   1.25602   1.25847
 Alpha virt. eigenvalues --    1.28521   1.28742   1.29123   1.29501   1.31515
 Alpha virt. eigenvalues --    1.31790   1.33002   1.33588   1.33734   1.35682
 Alpha virt. eigenvalues --    1.35706   1.37380   1.38268   1.38847   1.39933
 Alpha virt. eigenvalues --    1.40347   1.40712   1.41114   1.41613   1.44667
 Alpha virt. eigenvalues --    1.45840   1.47123   1.48195   1.49028   1.50586
 Alpha virt. eigenvalues --    1.51945   1.52228   1.52911   1.53239   1.53282
 Alpha virt. eigenvalues --    1.54219   1.55100   1.55152   1.56177   1.56856
 Alpha virt. eigenvalues --    1.57153   1.57363   1.57561   1.58347   1.58648
 Alpha virt. eigenvalues --    1.59576   1.59688   1.60323   1.60888   1.61352
 Alpha virt. eigenvalues --    1.61356   1.61410   1.62113   1.62887   1.63449
 Alpha virt. eigenvalues --    1.65087   1.65692   1.66374   1.67111   1.67888
 Alpha virt. eigenvalues --    1.67902   1.68909   1.69091   1.69529   1.70118
 Alpha virt. eigenvalues --    1.70119   1.72168   1.72190   1.72473   1.72690
 Alpha virt. eigenvalues --    1.72712   1.73990   1.74998   1.75165   1.75382
 Alpha virt. eigenvalues --    1.75769   1.76136   1.76469   1.76683   1.78789
 Alpha virt. eigenvalues --    1.78919   1.78926   1.80209   1.80913   1.80942
 Alpha virt. eigenvalues --    1.81354   1.81433   1.82603   1.83076   1.84089
 Alpha virt. eigenvalues --    1.85190   1.85230   1.85627   1.85636   1.86493
 Alpha virt. eigenvalues --    1.87398   1.87813   1.88282   1.88783   1.89088
 Alpha virt. eigenvalues --    1.90139   1.90402   1.90404   1.90438   1.91946
 Alpha virt. eigenvalues --    1.93102   1.93200   1.94563   1.96172   1.96205
 Alpha virt. eigenvalues --    1.97416   1.97454   1.98741   2.00534   2.01100
 Alpha virt. eigenvalues --    2.01212   2.02261   2.05760   2.05791   2.06241
 Alpha virt. eigenvalues --    2.06859   2.07744   2.08899   2.09523   2.09630
 Alpha virt. eigenvalues --    2.09670   2.11668   2.12174   2.12620   2.12875
 Alpha virt. eigenvalues --    2.13439   2.13531   2.15369   2.15824   2.16879
 Alpha virt. eigenvalues --    2.17084   2.17533   2.17796   2.18271   2.18445
 Alpha virt. eigenvalues --    2.20259   2.20530   2.20534   2.20873   2.21263
 Alpha virt. eigenvalues --    2.22243   2.22753   2.22754   2.23731   2.25015
 Alpha virt. eigenvalues --    2.25356   2.25396   2.27015   2.28136   2.28347
 Alpha virt. eigenvalues --    2.29325   2.30495   2.31730   2.31912   2.32213
 Alpha virt. eigenvalues --    2.32359   2.33209   2.33332   2.34748   2.35043
 Alpha virt. eigenvalues --    2.35070   2.35546   2.35599   2.36552   2.37532
 Alpha virt. eigenvalues --    2.38065   2.38629   2.39673   2.40715   2.40807
 Alpha virt. eigenvalues --    2.41331   2.41797   2.41937   2.44249   2.45256
 Alpha virt. eigenvalues --    2.45316   2.45508   2.45647   2.46394   2.46511
 Alpha virt. eigenvalues --    2.47171   2.50176   2.51712   2.51957   2.52810
 Alpha virt. eigenvalues --    2.54188   2.54681   2.55101   2.55110   2.55200
 Alpha virt. eigenvalues --    2.55777   2.55884   2.57194   2.57232   2.57677
 Alpha virt. eigenvalues --    2.57812   2.58342   2.58704   2.59157   2.59367
 Alpha virt. eigenvalues --    2.60172   2.61286   2.61595   2.66557   2.66631
 Alpha virt. eigenvalues --    2.67088   2.67099   2.72751   2.73428   2.74050
 Alpha virt. eigenvalues --    2.74807   2.76886   2.78163   2.78853   2.78910
 Alpha virt. eigenvalues --    2.82778   2.82810   2.83228   2.84968   2.85266
 Alpha virt. eigenvalues --    2.88424   2.89733   2.89941   2.90623   2.91528
 Alpha virt. eigenvalues --    2.92187   2.92533   2.96733   2.97049   2.98097
 Alpha virt. eigenvalues --    2.99649   3.02675   3.03183   3.03379   3.03965
 Alpha virt. eigenvalues --    3.05546   3.07032   3.07467   3.08126   3.08185
 Alpha virt. eigenvalues --    3.13079   3.13558   3.13716   3.14510   3.15996
 Alpha virt. eigenvalues --    3.16077   3.16284   3.16515   3.30238   3.31023
 Alpha virt. eigenvalues --    3.31750   3.31948   3.32307   3.68844   3.68971
 Alpha virt. eigenvalues --    3.69276   3.69408   4.37037   4.37079   4.39280
 Alpha virt. eigenvalues --    4.40114   4.40473   4.40710   4.42214   4.43571
 Alpha virt. eigenvalues --    4.46592   4.47654   4.53109   4.56441   4.56563
 Alpha virt. eigenvalues --    4.58375  36.54246  36.56781  36.59608  36.60566
 Alpha virt. eigenvalues --   36.62688  36.67159  50.01483  50.24522
  Beta  occ. eigenvalues --  -18.92469 -18.92464 -18.92234 -18.92234 -18.92233
  Beta  occ. eigenvalues --  -18.92233 -18.92147 -18.92146 -18.92143 -18.92143
  Beta  occ. eigenvalues --  -14.15940 -14.15938 -14.15938 -14.15937 -10.09799
  Beta  occ. eigenvalues --  -10.09799 -10.09799 -10.09798 -10.09770 -10.09769
  Beta  occ. eigenvalues --  -10.09769 -10.09769 -10.09743 -10.09743 -10.09743
  Beta  occ. eigenvalues --  -10.09743 -10.08435 -10.08433 -10.08432 -10.08431
  Beta  occ. eigenvalues --  -10.07645 -10.07643 -10.07643 -10.07642 -10.05805
  Beta  occ. eigenvalues --  -10.05804 -10.05803 -10.05803  -3.12982  -3.12942
  Beta  occ. eigenvalues --   -1.92273  -1.91676  -1.91631  -1.91522  -1.91427
  Beta  occ. eigenvalues --   -1.91393  -1.09727  -1.09709  -1.09578  -1.09577
  Beta  occ. eigenvalues --   -1.02882  -1.02673  -1.02197  -1.02197  -0.99246
  Beta  occ. eigenvalues --   -0.99206  -0.99028  -0.98960  -0.97840  -0.95582
  Beta  occ. eigenvalues --   -0.86970  -0.86947  -0.86927  -0.86872  -0.82838
  Beta  occ. eigenvalues --   -0.82838  -0.82826  -0.82806  -0.71208  -0.71193
  Beta  occ. eigenvalues --   -0.71149  -0.71045  -0.70368  -0.70315  -0.70269
  Beta  occ. eigenvalues --   -0.70238  -0.62773  -0.62616  -0.62288  -0.62193
  Beta  occ. eigenvalues --   -0.59750  -0.59290  -0.58255  -0.58226  -0.58194
  Beta  occ. eigenvalues --   -0.58185  -0.58179  -0.58066  -0.54963  -0.54743
  Beta  occ. eigenvalues --   -0.54640  -0.54637  -0.52083  -0.52042  -0.51914
  Beta  occ. eigenvalues --   -0.51905  -0.51802  -0.51699  -0.51616  -0.51591
  Beta  occ. eigenvalues --   -0.50251  -0.50234  -0.49685  -0.49604  -0.49599
  Beta  occ. eigenvalues --   -0.49080  -0.49071  -0.48357  -0.47550  -0.46355
  Beta  occ. eigenvalues --   -0.46286  -0.46269  -0.46065  -0.46026  -0.45612
  Beta  occ. eigenvalues --   -0.45341  -0.45304  -0.45001  -0.44575  -0.42216
  Beta  occ. eigenvalues --   -0.41963  -0.41958  -0.40653  -0.39924  -0.39235
  Beta  occ. eigenvalues --   -0.39210  -0.39157  -0.39032  -0.38855  -0.38504
  Beta  occ. eigenvalues --   -0.37776  -0.37574  -0.37392  -0.37089  -0.37055
  Beta  occ. eigenvalues --   -0.36844  -0.36723  -0.36509  -0.35471  -0.35403
  Beta  occ. eigenvalues --   -0.35400  -0.35310  -0.34565  -0.34495  -0.34489
  Beta  occ. eigenvalues --   -0.34463  -0.21975  -0.21052  -0.20016
  Beta virt. eigenvalues --   -0.19896  -0.19845  -0.18626  -0.17157  -0.17130
  Beta virt. eigenvalues --   -0.17079  -0.16508  -0.15713  -0.15690  -0.15501
  Beta virt. eigenvalues --   -0.15359  -0.11373  -0.10923  -0.09489  -0.09477
  Beta virt. eigenvalues --   -0.06697  -0.06653  -0.06648  -0.06530  -0.04166
  Beta virt. eigenvalues --   -0.02362  -0.00872  -0.00831   0.00795   0.01178
  Beta virt. eigenvalues --    0.01471   0.01485   0.01636   0.01639   0.01833
  Beta virt. eigenvalues --    0.02270   0.03089   0.03142   0.03607   0.03788
  Beta virt. eigenvalues --    0.03908   0.05317   0.06258   0.07105   0.07225
  Beta virt. eigenvalues --    0.07391   0.07458   0.07952   0.08168   0.08880
  Beta virt. eigenvalues --    0.09695   0.09736   0.10401   0.11024   0.11360
  Beta virt. eigenvalues --    0.11366   0.11676   0.11700   0.12731   0.12780
  Beta virt. eigenvalues --    0.13419   0.14766   0.15106   0.16078   0.16171
  Beta virt. eigenvalues --    0.16211   0.16496   0.16642   0.16727   0.17000
  Beta virt. eigenvalues --    0.17782   0.18045   0.18152   0.18227   0.18901
  Beta virt. eigenvalues --    0.19533   0.20362   0.21001   0.21072   0.21911
  Beta virt. eigenvalues --    0.22093   0.22495   0.22768   0.22987   0.23565
  Beta virt. eigenvalues --    0.24177   0.24684   0.25681   0.26415   0.26525
  Beta virt. eigenvalues --    0.26562   0.27250   0.29040   0.29094   0.29653
  Beta virt. eigenvalues --    0.31793   0.32265   0.33728   0.34660   0.35870
  Beta virt. eigenvalues --    0.35922   0.36526   0.36741   0.36763   0.36969
  Beta virt. eigenvalues --    0.37644   0.37753   0.39094   0.40234   0.40409
  Beta virt. eigenvalues --    0.40584   0.41694   0.41882   0.41900   0.42699
  Beta virt. eigenvalues --    0.43267   0.43583   0.45963   0.46014   0.46033
  Beta virt. eigenvalues --    0.46170   0.46527   0.46712   0.47055   0.47613
  Beta virt. eigenvalues --    0.47953   0.48003   0.48021   0.48535   0.49441
  Beta virt. eigenvalues --    0.49830   0.49834   0.49916   0.50700   0.52400
  Beta virt. eigenvalues --    0.52812   0.52872   0.52903   0.53010   0.53033
  Beta virt. eigenvalues --    0.53210   0.53656   0.54717   0.55206   0.55564
  Beta virt. eigenvalues --    0.57124   0.57786   0.57798   0.59909   0.60242
  Beta virt. eigenvalues --    0.60559   0.60905   0.61498   0.62701   0.63958
  Beta virt. eigenvalues --    0.64170   0.64806   0.65000   0.65044   0.65184
  Beta virt. eigenvalues --    0.65315   0.65352   0.65959   0.66184   0.66337
  Beta virt. eigenvalues --    0.67393   0.67684   0.68328   0.69111   0.69289
  Beta virt. eigenvalues --    0.69473   0.70451   0.70935   0.71308   0.71330
  Beta virt. eigenvalues --    0.71331   0.72286   0.73372   0.73589   0.73889
  Beta virt. eigenvalues --    0.75706   0.76810   0.76962   0.77055   0.77426
  Beta virt. eigenvalues --    0.79012   0.79178   0.79479   0.80328   0.80950
  Beta virt. eigenvalues --    0.81008   0.81169   0.82504   0.83220   0.83887
  Beta virt. eigenvalues --    0.84146   0.84320   0.84880   0.85760   0.87009
  Beta virt. eigenvalues --    0.87409   0.87775   0.87958   0.88325   0.89121
  Beta virt. eigenvalues --    0.89791   0.90121   0.91092   0.91111   0.91697
  Beta virt. eigenvalues --    0.92465   0.92466   0.92729   0.94463   0.94465
  Beta virt. eigenvalues --    0.94932   0.95226   0.95915   0.97409   0.97730
  Beta virt. eigenvalues --    0.98171   1.00116   1.00712   1.01164   1.01610
  Beta virt. eigenvalues --    1.01772   1.02015   1.02537   1.02723   1.03120
  Beta virt. eigenvalues --    1.03461   1.03750   1.04175   1.05283   1.05983
  Beta virt. eigenvalues --    1.06227   1.06688   1.07823   1.08421   1.08451
  Beta virt. eigenvalues --    1.08910   1.10503   1.11593   1.11652   1.12087
  Beta virt. eigenvalues --    1.12449   1.12720   1.13491   1.14459   1.15086
  Beta virt. eigenvalues --    1.16414   1.16521   1.16600   1.16752   1.17058
  Beta virt. eigenvalues --    1.17455   1.18516   1.18661   1.18988   1.19309
  Beta virt. eigenvalues --    1.20448   1.20594   1.21078   1.21168   1.21587
  Beta virt. eigenvalues --    1.21868   1.22247   1.22689   1.23312   1.23678
  Beta virt. eigenvalues --    1.24987   1.25257   1.25426   1.25602   1.25847
  Beta virt. eigenvalues --    1.28521   1.28742   1.29123   1.29501   1.31515
  Beta virt. eigenvalues --    1.31790   1.33002   1.33588   1.33734   1.35682
  Beta virt. eigenvalues --    1.35706   1.37380   1.38268   1.38847   1.39933
  Beta virt. eigenvalues --    1.40347   1.40712   1.41114   1.41613   1.44667
  Beta virt. eigenvalues --    1.45840   1.47123   1.48195   1.49028   1.50586
  Beta virt. eigenvalues --    1.51945   1.52228   1.52911   1.53239   1.53282
  Beta virt. eigenvalues --    1.54219   1.55100   1.55152   1.56177   1.56856
  Beta virt. eigenvalues --    1.57153   1.57363   1.57561   1.58347   1.58648
  Beta virt. eigenvalues --    1.59576   1.59688   1.60323   1.60888   1.61352
  Beta virt. eigenvalues --    1.61356   1.61410   1.62113   1.62887   1.63449
  Beta virt. eigenvalues --    1.65087   1.65692   1.66374   1.67111   1.67888
  Beta virt. eigenvalues --    1.67902   1.68909   1.69091   1.69529   1.70118
  Beta virt. eigenvalues --    1.70119   1.72168   1.72190   1.72473   1.72690
  Beta virt. eigenvalues --    1.72712   1.73990   1.74998   1.75165   1.75382
  Beta virt. eigenvalues --    1.75769   1.76136   1.76469   1.76683   1.78789
  Beta virt. eigenvalues --    1.78919   1.78926   1.80209   1.80913   1.80942
  Beta virt. eigenvalues --    1.81354   1.81433   1.82603   1.83076   1.84089
  Beta virt. eigenvalues --    1.85190   1.85230   1.85627   1.85636   1.86493
  Beta virt. eigenvalues --    1.87398   1.87813   1.88282   1.88783   1.89088
  Beta virt. eigenvalues --    1.90139   1.90402   1.90404   1.90438   1.91946
  Beta virt. eigenvalues --    1.93102   1.93200   1.94563   1.96172   1.96205
  Beta virt. eigenvalues --    1.97416   1.97454   1.98741   2.00534   2.01100
  Beta virt. eigenvalues --    2.01212   2.02261   2.05760   2.05791   2.06241
  Beta virt. eigenvalues --    2.06859   2.07744   2.08899   2.09523   2.09630
  Beta virt. eigenvalues --    2.09670   2.11668   2.12174   2.12620   2.12875
  Beta virt. eigenvalues --    2.13439   2.13531   2.15369   2.15824   2.16879
  Beta virt. eigenvalues --    2.17084   2.17533   2.17796   2.18271   2.18445
  Beta virt. eigenvalues --    2.20259   2.20530   2.20534   2.20873   2.21263
  Beta virt. eigenvalues --    2.22243   2.22753   2.22754   2.23731   2.25015
  Beta virt. eigenvalues --    2.25356   2.25396   2.27015   2.28136   2.28347
  Beta virt. eigenvalues --    2.29325   2.30495   2.31730   2.31912   2.32213
  Beta virt. eigenvalues --    2.32359   2.33209   2.33332   2.34748   2.35043
  Beta virt. eigenvalues --    2.35070   2.35546   2.35599   2.36552   2.37532
  Beta virt. eigenvalues --    2.38065   2.38629   2.39673   2.40715   2.40807
  Beta virt. eigenvalues --    2.41331   2.41797   2.41937   2.44249   2.45256
  Beta virt. eigenvalues --    2.45316   2.45508   2.45647   2.46394   2.46511
  Beta virt. eigenvalues --    2.47171   2.50176   2.51712   2.51957   2.52810
  Beta virt. eigenvalues --    2.54188   2.54681   2.55101   2.55110   2.55200
  Beta virt. eigenvalues --    2.55777   2.55884   2.57194   2.57232   2.57677
  Beta virt. eigenvalues --    2.57812   2.58342   2.58704   2.59157   2.59367
  Beta virt. eigenvalues --    2.60172   2.61286   2.61595   2.66557   2.66631
  Beta virt. eigenvalues --    2.67088   2.67099   2.72751   2.73428   2.74050
  Beta virt. eigenvalues --    2.74807   2.76886   2.78163   2.78853   2.78910
  Beta virt. eigenvalues --    2.82778   2.82810   2.83228   2.84968   2.85266
  Beta virt. eigenvalues --    2.88424   2.89733   2.89941   2.90623   2.91528
  Beta virt. eigenvalues --    2.92187   2.92533   2.96733   2.97049   2.98097
  Beta virt. eigenvalues --    2.99649   3.02675   3.03183   3.03379   3.03965
  Beta virt. eigenvalues --    3.05546   3.07032   3.07467   3.08126   3.08185
  Beta virt. eigenvalues --    3.13079   3.13558   3.13716   3.14510   3.15996
  Beta virt. eigenvalues --    3.16077   3.16284   3.16515   3.30238   3.31023
  Beta virt. eigenvalues --    3.31750   3.31948   3.32307   3.68844   3.68971
  Beta virt. eigenvalues --    3.69276   3.69408   4.37037   4.37079   4.39280
  Beta virt. eigenvalues --    4.40114   4.40473   4.40710   4.42214   4.43571
  Beta virt. eigenvalues --    4.46592   4.47654   4.53109   4.56441   4.56563
  Beta virt. eigenvalues --    4.58375  36.54246  36.56781  36.59608  36.60566
  Beta virt. eigenvalues --   36.62688  36.67159  50.01483  50.24522
          Condensed to atoms (all electrons):
 Mulliken atomic charges:
              1
     1  Mn   2.675379
     2  Mn   2.675379
     3  O   -1.110066
     4  O   -0.761642
     5  O   -0.808294
     6  O   -1.110066
     7  O   -0.761641
     8  O   -0.761641
     9  O   -0.761642
    10  O   -0.808294
    11  O   -0.808294
    12  O   -0.808294
    13  N   -0.518273
    14  N   -0.518274
    15  N   -0.518274
    16  N   -0.518273
    17  C    0.046677
    18  C   -0.332352
    19  C   -0.307190
    20  C   -0.307768
    21  C    0.234462
    22  C    0.981350
    23  C    0.046676
    24  C    0.234461
    25  C    0.981349
    26  C    0.046676
    27  C    0.234461
    28  C    0.046677
    29  C    0.234462
    30  C    0.981349
    31  C    0.981350
    32  C   -0.332353
    33  C   -0.307769
    34  C   -0.332353
    35  C   -0.307769
    36  C   -0.332352
    37  C   -0.307768
    38  C   -0.307190
    39  C   -0.307190
    40  C   -0.307190
    41  H    0.240840
    42  H    0.252119
    43  H    0.252036
    44  H    0.245382
    45  H    0.240840
    46  H    0.240840
    47  H    0.240840
    48  H    0.252118
    49  H    0.245382
    50  H    0.252118
    51  H    0.245382
    52  H    0.252119
    53  H    0.245382
    54  H    0.252035
    55  H    0.252035
    56  H    0.252036
 Sum of Mulliken atomic charges =  -0.00000
 Mulliken charges with hydrogens summed into heavy atoms:
              1
     1  Mn   2.675379
     2  Mn   2.675379
     3  O   -1.110066
     4  O   -0.761642
     5  O   -0.808294
     6  O   -1.110066
     7  O   -0.761641
     8  O   -0.761641
     9  O   -0.761642
    10  O   -0.808294
    11  O   -0.808294
    12  O   -0.808294
    13  N   -0.518273
    14  N   -0.518274
    15  N   -0.518274
    16  N   -0.518273
    17  C    0.287517
    18  C   -0.080234
    19  C   -0.055154
    20  C   -0.062387
    21  C    0.234462
    22  C    0.981350
    23  C    0.287516
    24  C    0.234461
    25  C    0.981349
    26  C    0.287516
    27  C    0.234461
    28  C    0.287517
    29  C    0.234462
    30  C    0.981349
    31  C    0.981350
    32  C   -0.080234
    33  C   -0.062387
    34  C   -0.080234
    35  C   -0.062387
    36  C   -0.080234
    37  C   -0.062387
    38  C   -0.055155
    39  C   -0.055155
    40  C   -0.055154
 Sum of Mulliken charges with hydrogens summed into heavy atoms =  -0.00000
          Condensed to fragments (all electrons):
     1      -5.350758
     2       2.675379
     3       2.675379
          Atomic-Atomic Spin Densities.
              1          2          3          4          5          6
     1  Mn   0.000000   0.000000   0.000000   0.000000   0.000000   0.000000
     2  Mn   0.000000   0.000000   0.000000   0.000000   0.000000   0.000000
     3  O    0.000000   0.000000   0.000000   0.000000   0.000000   0.000000
     4  O    0.000000   0.000000   0.000000   0.000000   0.000000   0.000000
     5  O    0.000000   0.000000   0.000000   0.000000   0.000000   0.000000
     6  O    0.000000   0.000000   0.000000   0.000000   0.000000   0.000000
     7  O    0.000000   0.000000   0.000000   0.000000   0.000000   0.000000
     8  O    0.000000   0.000000   0.000000   0.000000   0.000000   0.000000
     9  O    0.000000   0.000000   0.000000   0.000000   0.000000   0.000000
    10  O    0.000000   0.000000   0.000000   0.000000   0.000000   0.000000
    11  O    0.000000   0.000000   0.000000   0.000000   0.000000   0.000000
    12  O    0.000000   0.000000   0.000000   0.000000   0.000000   0.000000
    13  N    0.000000   0.000000   0.000000   0.000000   0.000000   0.000000
    14  N    0.000000   0.000000   0.000000   0.000000   0.000000   0.000000
    15  N    0.000000   0.000000   0.000000   0.000000   0.000000   0.000000
    16  N    0.000000   0.000000   0.000000   0.000000   0.000000   0.000000
    17  C    0.000000   0.000000   0.000000   0.000000   0.000000   0.000000
    18  C    0.000000   0.000000   0.000000   0.000000   0.000000   0.000000
    19  C    0.000000   0.000000   0.000000   0.000000   0.000000   0.000000
    20  C    0.000000   0.000000   0.000000   0.000000   0.000000   0.000000
    21  C    0.000000   0.000000   0.000000   0.000000   0.000000   0.000000
    22  C    0.000000   0.000000   0.000000   0.000000   0.000000   0.000000
    23  C    0.000000   0.000000   0.000000   0.000000   0.000000   0.000000
    24  C    0.000000   0.000000   0.000000   0.000000   0.000000   0.000000
    25  C    0.000000   0.000000   0.000000   0.000000   0.000000   0.000000
    26  C    0.000000   0.000000   0.000000   0.000000   0.000000   0.000000
    27  C    0.000000   0.000000   0.000000   0.000000   0.000000   0.000000
    28  C    0.000000   0.000000   0.000000   0.000000   0.000000   0.000000
    29  C    0.000000   0.000000   0.000000   0.000000   0.000000   0.000000
    30  C    0.000000   0.000000   0.000000   0.000000   0.000000   0.000000
    31  C    0.000000   0.000000   0.000000   0.000000   0.000000   0.000000
    32  C    0.000000   0.000000   0.000000   0.000000   0.000000   0.000000
    33  C    0.000000   0.000000   0.000000   0.000000   0.000000   0.000000
    34  C    0.000000   0.000000   0.000000   0.000000   0.000000   0.000000
    35  C    0.000000   0.000000   0.000000   0.000000   0.000000   0.000000
    36  C    0.000000   0.000000   0.000000   0.000000   0.000000   0.000000
    37  C    0.000000   0.000000   0.000000   0.000000   0.000000   0.000000
    38  C    0.000000   0.000000   0.000000   0.000000   0.000000   0.000000
    39  C    0.000000   0.000000   0.000000   0.000000   0.000000   0.000000
    40  C    0.000000   0.000000   0.000000   0.000000   0.000000   0.000000
    41  H    0.000000   0.000000   0.000000   0.000000   0.000000   0.000000
    42  H    0.000000   0.000000   0.000000   0.000000   0.000000   0.000000
    43  H    0.000000   0.000000   0.000000   0.000000   0.000000   0.000000
    44  H    0.000000   0.000000   0.000000   0.000000   0.000000   0.000000
    45  H    0.000000   0.000000   0.000000   0.000000   0.000000   0.000000
    46  H    0.000000   0.000000   0.000000   0.000000   0.000000   0.000000
    47  H    0.000000   0.000000   0.000000   0.000000   0.000000   0.000000
    48  H    0.000000   0.000000   0.000000   0.000000   0.000000   0.000000
    49  H    0.000000   0.000000   0.000000   0.000000   0.000000   0.000000
    50  H    0.000000   0.000000   0.000000   0.000000   0.000000   0.000000
    51  H    0.000000   0.000000   0.000000   0.000000   0.000000   0.000000
    52  H    0.000000   0.000000   0.000000   0.000000   0.000000   0.000000
    53  H    0.000000   0.000000   0.000000   0.000000   0.000000   0.000000
    54  H    0.000000   0.000000   0.000000   0.000000   0.000000   0.000000
    55  H    0.000000   0.000000   0.000000   0.000000   0.000000   0.000000
    56  H    0.000000   0.000000   0.000000   0.000000   0.000000   0.000000
              7          8          9         10         11         12
     1  Mn   0.000000   0.000000   0.000000   0.000000   0.000000   0.000000
     2  Mn   0.000000   0.000000   0.000000   0.000000   0.000000   0.000000
     3  O    0.000000   0.000000   0.000000   0.000000   0.000000   0.000000
     4  O    0.000000   0.000000   0.000000   0.000000   0.000000   0.000000
     5  O    0.000000   0.000000   0.000000   0.000000   0.000000   0.000000
     6  O    0.000000   0.000000   0.000000   0.000000   0.000000   0.000000
     7  O    0.000000   0.000000   0.000000   0.000000   0.000000   0.000000
     8  O    0.000000   0.000000   0.000000   0.000000   0.000000   0.000000
     9  O    0.000000   0.000000   0.000000   0.000000   0.000000   0.000000
    10  O    0.000000   0.000000   0.000000   0.000000   0.000000   0.000000
    11  O    0.000000   0.000000   0.000000   0.000000   0.000000   0.000000
    12  O    0.000000   0.000000   0.000000   0.000000   0.000000   0.000000
    13  N    0.000000   0.000000   0.000000   0.000000   0.000000   0.000000
    14  N    0.000000   0.000000   0.000000   0.000000   0.000000   0.000000
    15  N    0.000000   0.000000   0.000000   0.000000   0.000000   0.000000
    16  N    0.000000   0.000000   0.000000   0.000000   0.000000   0.000000
    17  C    0.000000   0.000000   0.000000   0.000000   0.000000   0.000000
    18  C    0.000000   0.000000   0.000000   0.000000   0.000000   0.000000
    19  C    0.000000   0.000000   0.000000   0.000000   0.000000   0.000000
    20  C    0.000000   0.000000   0.000000   0.000000   0.000000   0.000000
    21  C    0.000000   0.000000   0.000000   0.000000   0.000000   0.000000
    22  C    0.000000   0.000000   0.000000   0.000000   0.000000   0.000000
    23  C    0.000000   0.000000   0.000000   0.000000   0.000000   0.000000
    24  C    0.000000   0.000000   0.000000   0.000000   0.000000   0.000000
    25  C    0.000000   0.000000   0.000000   0.000000   0.000000   0.000000
    26  C    0.000000   0.000000   0.000000   0.000000   0.000000   0.000000
    27  C    0.000000   0.000000   0.000000   0.000000   0.000000   0.000000
    28  C    0.000000   0.000000   0.000000   0.000000   0.000000   0.000000
    29  C    0.000000   0.000000   0.000000   0.000000   0.000000   0.000000
    30  C    0.000000   0.000000   0.000000   0.000000   0.000000   0.000000
    31  C    0.000000   0.000000   0.000000   0.000000   0.000000   0.000000
    32  C    0.000000   0.000000   0.000000   0.000000   0.000000   0.000000
    33  C    0.000000   0.000000   0.000000   0.000000   0.000000   0.000000
    34  C    0.000000   0.000000   0.000000   0.000000   0.000000   0.000000
    35  C    0.000000   0.000000   0.000000   0.000000   0.000000   0.000000
    36  C    0.000000   0.000000   0.000000   0.000000   0.000000   0.000000
    37  C    0.000000   0.000000   0.000000   0.000000   0.000000   0.000000
    38  C    0.000000   0.000000   0.000000   0.000000   0.000000   0.000000
    39  C    0.000000   0.000000   0.000000   0.000000   0.000000   0.000000
    40  C    0.000000   0.000000   0.000000   0.000000   0.000000   0.000000
    41  H    0.000000   0.000000   0.000000   0.000000   0.000000   0.000000
    42  H    0.000000   0.000000   0.000000   0.000000   0.000000   0.000000
    43  H    0.000000   0.000000   0.000000   0.000000   0.000000   0.000000
    44  H    0.000000   0.000000   0.000000   0.000000   0.000000   0.000000
    45  H    0.000000   0.000000   0.000000   0.000000   0.000000   0.000000
    46  H    0.000000   0.000000   0.000000   0.000000   0.000000   0.000000
    47  H    0.000000   0.000000   0.000000   0.000000   0.000000   0.000000
    48  H    0.000000   0.000000   0.000000   0.000000   0.000000   0.000000
    49  H    0.000000   0.000000   0.000000   0.000000   0.000000   0.000000
    50  H    0.000000   0.000000   0.000000   0.000000   0.000000   0.000000
    51  H    0.000000   0.000000   0.000000   0.000000   0.000000   0.000000
    52  H    0.000000   0.000000   0.000000   0.000000   0.000000   0.000000
    53  H    0.000000   0.000000   0.000000   0.000000   0.000000   0.000000
    54  H    0.000000   0.000000   0.000000   0.000000   0.000000   0.000000
    55  H    0.000000   0.000000   0.000000   0.000000   0.000000   0.000000
    56  H    0.000000   0.000000   0.000000   0.000000   0.000000   0.000000
             13         14         15         16         17         18
     1  Mn   0.000000   0.000000   0.000000   0.000000   0.000000   0.000000
     2  Mn   0.000000   0.000000   0.000000   0.000000   0.000000   0.000000
     3  O    0.000000   0.000000   0.000000   0.000000   0.000000   0.000000
     4  O    0.000000   0.000000   0.000000   0.000000   0.000000   0.000000
     5  O    0.000000   0.000000   0.000000   0.000000   0.000000   0.000000
     6  O    0.000000   0.000000   0.000000   0.000000   0.000000   0.000000
     7  O    0.000000   0.000000   0.000000   0.000000   0.000000   0.000000
     8  O    0.000000   0.000000   0.000000   0.000000   0.000000   0.000000
     9  O    0.000000   0.000000   0.000000   0.000000   0.000000   0.000000
    10  O    0.000000   0.000000   0.000000   0.000000   0.000000   0.000000
    11  O    0.000000   0.000000   0.000000   0.000000   0.000000   0.000000
    12  O    0.000000   0.000000   0.000000   0.000000   0.000000   0.000000
    13  N    0.000000   0.000000   0.000000   0.000000   0.000000   0.000000
    14  N    0.000000   0.000000   0.000000   0.000000   0.000000   0.000000
    15  N    0.000000   0.000000   0.000000   0.000000   0.000000   0.000000
    16  N    0.000000   0.000000   0.000000   0.000000   0.000000   0.000000
    17  C    0.000000   0.000000   0.000000   0.000000   0.000000   0.000000
    18  C    0.000000   0.000000   0.000000   0.000000   0.000000   0.000000
    19  C    0.000000   0.000000   0.000000   0.000000   0.000000   0.000000
    20  C    0.000000   0.000000   0.000000   0.000000   0.000000   0.000000
    21  C    0.000000   0.000000   0.000000   0.000000   0.000000   0.000000
    22  C    0.000000   0.000000   0.000000   0.000000   0.000000   0.000000
    23  C    0.000000   0.000000   0.000000   0.000000   0.000000   0.000000
    24  C    0.000000   0.000000   0.000000   0.000000   0.000000   0.000000
    25  C    0.000000   0.000000   0.000000   0.000000   0.000000   0.000000
    26  C    0.000000   0.000000   0.000000   0.000000   0.000000   0.000000
    27  C    0.000000   0.000000   0.000000   0.000000   0.000000   0.000000
    28  C    0.000000   0.000000   0.000000   0.000000   0.000000   0.000000
    29  C    0.000000   0.000000   0.000000   0.000000   0.000000   0.000000
    30  C    0.000000   0.000000   0.000000   0.000000   0.000000   0.000000
    31  C    0.000000   0.000000   0.000000   0.000000   0.000000   0.000000
    32  C    0.000000   0.000000   0.000000   0.000000   0.000000   0.000000
    33  C    0.000000   0.000000   0.000000   0.000000   0.000000   0.000000
    34  C    0.000000   0.000000   0.000000   0.000000   0.000000   0.000000
    35  C    0.000000   0.000000   0.000000   0.000000   0.000000   0.000000
    36  C    0.000000   0.000000   0.000000   0.000000   0.000000   0.000000
    37  C    0.000000   0.000000   0.000000   0.000000   0.000000   0.000000
    38  C    0.000000   0.000000   0.000000   0.000000   0.000000   0.000000
    39  C    0.000000   0.000000   0.000000   0.000000   0.000000   0.000000
    40  C    0.000000   0.000000   0.000000   0.000000   0.000000   0.000000
    41  H    0.000000   0.000000   0.000000   0.000000   0.000000   0.000000
    42  H    0.000000   0.000000   0.000000   0.000000   0.000000   0.000000
    43  H    0.000000   0.000000   0.000000   0.000000   0.000000   0.000000
    44  H    0.000000   0.000000   0.000000   0.000000   0.000000   0.000000
    45  H    0.000000   0.000000   0.000000   0.000000   0.000000   0.000000
    46  H    0.000000   0.000000   0.000000   0.000000   0.000000   0.000000
    47  H    0.000000   0.000000   0.000000   0.000000   0.000000   0.000000
    48  H    0.000000   0.000000   0.000000   0.000000   0.000000   0.000000
    49  H    0.000000   0.000000   0.000000   0.000000   0.000000   0.000000
    50  H    0.000000   0.000000   0.000000   0.000000   0.000000   0.000000
    51  H    0.000000   0.000000   0.000000   0.000000   0.000000   0.000000
    52  H    0.000000   0.000000   0.000000   0.000000   0.000000   0.000000
    53  H    0.000000   0.000000   0.000000   0.000000   0.000000   0.000000
    54  H    0.000000   0.000000   0.000000   0.000000   0.000000   0.000000
    55  H    0.000000   0.000000   0.000000   0.000000   0.000000   0.000000
    56  H    0.000000   0.000000   0.000000   0.000000   0.000000   0.000000
             19         20         21         22         23         24
     1  Mn   0.000000   0.000000   0.000000   0.000000   0.000000   0.000000
     2  Mn   0.000000   0.000000   0.000000   0.000000   0.000000   0.000000
     3  O    0.000000   0.000000   0.000000   0.000000   0.000000   0.000000
     4  O    0.000000   0.000000   0.000000   0.000000   0.000000   0.000000
     5  O    0.000000   0.000000   0.000000   0.000000   0.000000   0.000000
     6  O    0.000000   0.000000   0.000000   0.000000   0.000000   0.000000
     7  O    0.000000   0.000000   0.000000   0.000000   0.000000   0.000000
     8  O    0.000000   0.000000   0.000000   0.000000   0.000000   0.000000
     9  O    0.000000   0.000000   0.000000   0.000000   0.000000   0.000000
    10  O    0.000000   0.000000   0.000000   0.000000   0.000000   0.000000
    11  O    0.000000   0.000000   0.000000   0.000000   0.000000   0.000000
    12  O    0.000000   0.000000   0.000000   0.000000   0.000000   0.000000
    13  N    0.000000   0.000000   0.000000   0.000000   0.000000   0.000000
    14  N    0.000000   0.000000   0.000000   0.000000   0.000000   0.000000
    15  N    0.000000   0.000000   0.000000   0.000000   0.000000   0.000000
    16  N    0.000000   0.000000   0.000000   0.000000   0.000000   0.000000
    17  C    0.000000   0.000000   0.000000   0.000000   0.000000   0.000000
    18  C    0.000000   0.000000   0.000000   0.000000   0.000000   0.000000
    19  C    0.000000   0.000000   0.000000   0.000000   0.000000   0.000000
    20  C    0.000000   0.000000   0.000000   0.000000   0.000000   0.000000
    21  C    0.000000   0.000000   0.000000   0.000000   0.000000   0.000000
    22  C    0.000000   0.000000   0.000000   0.000000   0.000000   0.000000
    23  C    0.000000   0.000000   0.000000   0.000000   0.000000   0.000000
    24  C    0.000000   0.000000   0.000000   0.000000   0.000000   0.000000
    25  C    0.000000   0.000000   0.000000   0.000000   0.000000   0.000000
    26  C    0.000000   0.000000   0.000000   0.000000   0.000000   0.000000
    27  C    0.000000   0.000000   0.000000   0.000000   0.000000   0.000000
    28  C    0.000000   0.000000   0.000000   0.000000   0.000000   0.000000
    29  C    0.000000   0.000000   0.000000   0.000000   0.000000   0.000000
    30  C    0.000000   0.000000   0.000000   0.000000   0.000000   0.000000
    31  C    0.000000   0.000000   0.000000   0.000000   0.000000   0.000000
    32  C    0.000000   0.000000   0.000000   0.000000   0.000000   0.000000
    33  C    0.000000   0.000000   0.000000   0.000000   0.000000   0.000000
    34  C    0.000000   0.000000   0.000000   0.000000   0.000000   0.000000
    35  C    0.000000   0.000000   0.000000   0.000000   0.000000   0.000000
    36  C    0.000000   0.000000   0.000000   0.000000   0.000000   0.000000
    37  C    0.000000   0.000000   0.000000   0.000000   0.000000   0.000000
    38  C    0.000000   0.000000   0.000000   0.000000   0.000000   0.000000
    39  C    0.000000   0.000000   0.000000   0.000000   0.000000   0.000000
    40  C    0.000000   0.000000   0.000000   0.000000   0.000000   0.000000
    41  H    0.000000   0.000000   0.000000   0.000000   0.000000   0.000000
    42  H    0.000000   0.000000   0.000000   0.000000   0.000000   0.000000
    43  H    0.000000   0.000000   0.000000   0.000000   0.000000   0.000000
    44  H    0.000000   0.000000   0.000000   0.000000   0.000000   0.000000
    45  H    0.000000   0.000000   0.000000   0.000000   0.000000   0.000000
    46  H    0.000000   0.000000   0.000000   0.000000   0.000000   0.000000
    47  H    0.000000   0.000000   0.000000   0.000000   0.000000   0.000000
    48  H    0.000000   0.000000   0.000000   0.000000   0.000000   0.000000
    49  H    0.000000   0.000000   0.000000   0.000000   0.000000   0.000000
    50  H    0.000000   0.000000   0.000000   0.000000   0.000000   0.000000
    51  H    0.000000   0.000000   0.000000   0.000000   0.000000   0.000000
    52  H    0.000000   0.000000   0.000000   0.000000   0.000000   0.000000
    53  H    0.000000   0.000000   0.000000   0.000000   0.000000   0.000000
    54  H    0.000000   0.000000   0.000000   0.000000   0.000000   0.000000
    55  H    0.000000   0.000000   0.000000   0.000000   0.000000   0.000000
    56  H    0.000000   0.000000   0.000000   0.000000   0.000000   0.000000
             25         26         27         28         29         30
     1  Mn   0.000000   0.000000   0.000000   0.000000   0.000000   0.000000
     2  Mn   0.000000   0.000000   0.000000   0.000000   0.000000   0.000000
     3  O    0.000000   0.000000   0.000000   0.000000   0.000000   0.000000
     4  O    0.000000   0.000000   0.000000   0.000000   0.000000   0.000000
     5  O    0.000000   0.000000   0.000000   0.000000   0.000000   0.000000
     6  O    0.000000   0.000000   0.000000   0.000000   0.000000   0.000000
     7  O    0.000000   0.000000   0.000000   0.000000   0.000000   0.000000
     8  O    0.000000   0.000000   0.000000   0.000000   0.000000   0.000000
     9  O    0.000000   0.000000   0.000000   0.000000   0.000000   0.000000
    10  O    0.000000   0.000000   0.000000   0.000000   0.000000   0.000000
    11  O    0.000000   0.000000   0.000000   0.000000   0.000000   0.000000
    12  O    0.000000   0.000000   0.000000   0.000000   0.000000   0.000000
    13  N    0.000000   0.000000   0.000000   0.000000   0.000000   0.000000
    14  N    0.000000   0.000000   0.000000   0.000000   0.000000   0.000000
    15  N    0.000000   0.000000   0.000000   0.000000   0.000000   0.000000
    16  N    0.000000   0.000000   0.000000   0.000000   0.000000   0.000000
    17  C    0.000000   0.000000   0.000000   0.000000   0.000000   0.000000
    18  C    0.000000   0.000000   0.000000   0.000000   0.000000   0.000000
    19  C    0.000000   0.000000   0.000000   0.000000   0.000000   0.000000
    20  C    0.000000   0.000000   0.000000   0.000000   0.000000   0.000000
    21  C    0.000000   0.000000   0.000000   0.000000   0.000000   0.000000
    22  C    0.000000   0.000000   0.000000   0.000000   0.000000   0.000000
    23  C    0.000000   0.000000   0.000000   0.000000   0.000000   0.000000
    24  C    0.000000   0.000000   0.000000   0.000000   0.000000   0.000000
    25  C    0.000000   0.000000   0.000000   0.000000   0.000000   0.000000
    26  C    0.000000   0.000000   0.000000   0.000000   0.000000   0.000000
    27  C    0.000000   0.000000   0.000000   0.000000   0.000000   0.000000
    28  C    0.000000   0.000000   0.000000   0.000000   0.000000   0.000000
    29  C    0.000000   0.000000   0.000000   0.000000   0.000000   0.000000
    30  C    0.000000   0.000000   0.000000   0.000000   0.000000   0.000000
    31  C    0.000000   0.000000   0.000000   0.000000   0.000000   0.000000
    32  C    0.000000   0.000000   0.000000   0.000000   0.000000   0.000000
    33  C    0.000000   0.000000   0.000000   0.000000   0.000000   0.000000
    34  C    0.000000   0.000000   0.000000   0.000000   0.000000   0.000000
    35  C    0.000000   0.000000   0.000000   0.000000   0.000000   0.000000
    36  C    0.000000   0.000000   0.000000   0.000000   0.000000   0.000000
    37  C    0.000000   0.000000   0.000000   0.000000   0.000000   0.000000
    38  C    0.000000   0.000000   0.000000   0.000000   0.000000   0.000000
    39  C    0.000000   0.000000   0.000000   0.000000   0.000000   0.000000
    40  C    0.000000   0.000000   0.000000   0.000000   0.000000   0.000000
    41  H    0.000000   0.000000   0.000000   0.000000   0.000000   0.000000
    42  H    0.000000   0.000000   0.000000   0.000000   0.000000   0.000000
    43  H    0.000000   0.000000   0.000000   0.000000   0.000000   0.000000
    44  H    0.000000   0.000000   0.000000   0.000000   0.000000   0.000000
    45  H    0.000000   0.000000   0.000000   0.000000   0.000000   0.000000
    46  H    0.000000   0.000000   0.000000   0.000000   0.000000   0.000000
    47  H    0.000000   0.000000   0.000000   0.000000   0.000000   0.000000
    48  H    0.000000   0.000000   0.000000   0.000000   0.000000   0.000000
    49  H    0.000000   0.000000   0.000000   0.000000   0.000000   0.000000
    50  H    0.000000   0.000000   0.000000   0.000000   0.000000   0.000000
    51  H    0.000000   0.000000   0.000000   0.000000   0.000000   0.000000
    52  H    0.000000   0.000000   0.000000   0.000000   0.000000   0.000000
    53  H    0.000000   0.000000   0.000000   0.000000   0.000000   0.000000
    54  H    0.000000   0.000000   0.000000   0.000000   0.000000   0.000000
    55  H    0.000000   0.000000   0.000000   0.000000   0.000000   0.000000
    56  H    0.000000   0.000000   0.000000   0.000000   0.000000   0.000000
             31         32         33         34         35         36
     1  Mn   0.000000   0.000000   0.000000   0.000000   0.000000   0.000000
     2  Mn   0.000000   0.000000   0.000000   0.000000   0.000000   0.000000
     3  O    0.000000   0.000000   0.000000   0.000000   0.000000   0.000000
     4  O    0.000000   0.000000   0.000000   0.000000   0.000000   0.000000
     5  O    0.000000   0.000000   0.000000   0.000000   0.000000   0.000000
     6  O    0.000000   0.000000   0.000000   0.000000   0.000000   0.000000
     7  O    0.000000   0.000000   0.000000   0.000000   0.000000   0.000000
     8  O    0.000000   0.000000   0.000000   0.000000   0.000000   0.000000
     9  O    0.000000   0.000000   0.000000   0.000000   0.000000   0.000000
    10  O    0.000000   0.000000   0.000000   0.000000   0.000000   0.000000
    11  O    0.000000   0.000000   0.000000   0.000000   0.000000   0.000000
    12  O    0.000000   0.000000   0.000000   0.000000   0.000000   0.000000
    13  N    0.000000   0.000000   0.000000   0.000000   0.000000   0.000000
    14  N    0.000000   0.000000   0.000000   0.000000   0.000000   0.000000
    15  N    0.000000   0.000000   0.000000   0.000000   0.000000   0.000000
    16  N    0.000000   0.000000   0.000000   0.000000   0.000000   0.000000
    17  C    0.000000   0.000000   0.000000   0.000000   0.000000   0.000000
    18  C    0.000000   0.000000   0.000000   0.000000   0.000000   0.000000
    19  C    0.000000   0.000000   0.000000   0.000000   0.000000   0.000000
    20  C    0.000000   0.000000   0.000000   0.000000   0.000000   0.000000
    21  C    0.000000   0.000000   0.000000   0.000000   0.000000   0.000000
    22  C    0.000000   0.000000   0.000000   0.000000   0.000000   0.000000
    23  C    0.000000   0.000000   0.000000   0.000000   0.000000   0.000000
    24  C    0.000000   0.000000   0.000000   0.000000   0.000000   0.000000
    25  C    0.000000   0.000000   0.000000   0.000000   0.000000   0.000000
    26  C    0.000000   0.000000   0.000000   0.000000   0.000000   0.000000
    27  C    0.000000   0.000000   0.000000   0.000000   0.000000   0.000000
    28  C    0.000000   0.000000   0.000000   0.000000   0.000000   0.000000
    29  C    0.000000   0.000000   0.000000   0.000000   0.000000   0.000000
    30  C    0.000000   0.000000   0.000000   0.000000   0.000000   0.000000
    31  C    0.000000   0.000000   0.000000   0.000000   0.000000   0.000000
    32  C    0.000000   0.000000   0.000000   0.000000   0.000000   0.000000
    33  C    0.000000   0.000000   0.000000   0.000000   0.000000   0.000000
    34  C    0.000000   0.000000   0.000000   0.000000   0.000000   0.000000
    35  C    0.000000   0.000000   0.000000   0.000000   0.000000   0.000000
    36  C    0.000000   0.000000   0.000000   0.000000   0.000000   0.000000
    37  C    0.000000   0.000000   0.000000   0.000000   0.000000   0.000000
    38  C    0.000000   0.000000   0.000000   0.000000   0.000000   0.000000
    39  C    0.000000   0.000000   0.000000   0.000000   0.000000   0.000000
    40  C    0.000000   0.000000   0.000000   0.000000   0.000000   0.000000
    41  H    0.000000   0.000000   0.000000   0.000000   0.000000   0.000000
    42  H    0.000000   0.000000   0.000000   0.000000   0.000000   0.000000
    43  H    0.000000   0.000000   0.000000   0.000000   0.000000   0.000000
    44  H    0.000000   0.000000   0.000000   0.000000   0.000000   0.000000
    45  H    0.000000   0.000000   0.000000   0.000000   0.000000   0.000000
    46  H    0.000000   0.000000   0.000000   0.000000   0.000000   0.000000
    47  H    0.000000   0.000000   0.000000   0.000000   0.000000   0.000000
    48  H    0.000000   0.000000   0.000000   0.000000   0.000000   0.000000
    49  H    0.000000   0.000000   0.000000   0.000000   0.000000   0.000000
    50  H    0.000000   0.000000   0.000000   0.000000   0.000000   0.000000
    51  H    0.000000   0.000000   0.000000   0.000000   0.000000   0.000000
    52  H    0.000000   0.000000   0.000000   0.000000   0.000000   0.000000
    53  H    0.000000   0.000000   0.000000   0.000000   0.000000   0.000000
    54  H    0.000000   0.000000   0.000000   0.000000   0.000000   0.000000
    55  H    0.000000   0.000000   0.000000   0.000000   0.000000   0.000000
    56  H    0.000000   0.000000   0.000000   0.000000   0.000000   0.000000
             37         38         39         40         41         42
     1  Mn   0.000000   0.000000   0.000000   0.000000   0.000000   0.000000
     2  Mn   0.000000   0.000000   0.000000   0.000000   0.000000   0.000000
     3  O    0.000000   0.000000   0.000000   0.000000   0.000000   0.000000
     4  O    0.000000   0.000000   0.000000   0.000000   0.000000   0.000000
     5  O    0.000000   0.000000   0.000000   0.000000   0.000000   0.000000
     6  O    0.000000   0.000000   0.000000   0.000000   0.000000   0.000000
     7  O    0.000000   0.000000   0.000000   0.000000   0.000000   0.000000
     8  O    0.000000   0.000000   0.000000   0.000000   0.000000   0.000000
     9  O    0.000000   0.000000   0.000000   0.000000   0.000000   0.000000
    10  O    0.000000   0.000000   0.000000   0.000000   0.000000   0.000000
    11  O    0.000000   0.000000   0.000000   0.000000   0.000000   0.000000
    12  O    0.000000   0.000000   0.000000   0.000000   0.000000   0.000000
    13  N    0.000000   0.000000   0.000000   0.000000   0.000000   0.000000
    14  N    0.000000   0.000000   0.000000   0.000000   0.000000   0.000000
    15  N    0.000000   0.000000   0.000000   0.000000   0.000000   0.000000
    16  N    0.000000   0.000000   0.000000   0.000000   0.000000   0.000000
    17  C    0.000000   0.000000   0.000000   0.000000   0.000000   0.000000
    18  C    0.000000   0.000000   0.000000   0.000000   0.000000   0.000000
    19  C    0.000000   0.000000   0.000000   0.000000   0.000000   0.000000
    20  C    0.000000   0.000000   0.000000   0.000000   0.000000   0.000000
    21  C    0.000000   0.000000   0.000000   0.000000   0.000000   0.000000
    22  C    0.000000   0.000000   0.000000   0.000000   0.000000   0.000000
    23  C    0.000000   0.000000   0.000000   0.000000   0.000000   0.000000
    24  C    0.000000   0.000000   0.000000   0.000000   0.000000   0.000000
    25  C    0.000000   0.000000   0.000000   0.000000   0.000000   0.000000
    26  C    0.000000   0.000000   0.000000   0.000000   0.000000   0.000000
    27  C    0.000000   0.000000   0.000000   0.000000   0.000000   0.000000
    28  C    0.000000   0.000000   0.000000   0.000000   0.000000   0.000000
    29  C    0.000000   0.000000   0.000000   0.000000   0.000000   0.000000
    30  C    0.000000   0.000000   0.000000   0.000000   0.000000   0.000000
    31  C    0.000000   0.000000   0.000000   0.000000   0.000000   0.000000
    32  C    0.000000   0.000000   0.000000   0.000000   0.000000   0.000000
    33  C    0.000000   0.000000   0.000000   0.000000   0.000000   0.000000
    34  C    0.000000   0.000000   0.000000   0.000000   0.000000   0.000000
    35  C    0.000000   0.000000   0.000000   0.000000   0.000000   0.000000
    36  C    0.000000   0.000000   0.000000   0.000000   0.000000   0.000000
    37  C    0.000000   0.000000   0.000000   0.000000   0.000000   0.000000
    38  C    0.000000   0.000000   0.000000   0.000000   0.000000   0.000000
    39  C    0.000000   0.000000   0.000000   0.000000   0.000000   0.000000
    40  C    0.000000   0.000000   0.000000   0.000000   0.000000   0.000000
    41  H    0.000000   0.000000   0.000000   0.000000   0.000000   0.000000
    42  H    0.000000   0.000000   0.000000   0.000000   0.000000   0.000000
    43  H    0.000000   0.000000   0.000000   0.000000   0.000000   0.000000
    44  H    0.000000   0.000000   0.000000   0.000000   0.000000   0.000000
    45  H    0.000000   0.000000   0.000000   0.000000   0.000000   0.000000
    46  H    0.000000   0.000000   0.000000   0.000000   0.000000   0.000000
    47  H    0.000000   0.000000   0.000000   0.000000   0.000000   0.000000
    48  H    0.000000   0.000000   0.000000   0.000000   0.000000   0.000000
    49  H    0.000000   0.000000   0.000000   0.000000   0.000000   0.000000
    50  H    0.000000   0.000000   0.000000   0.000000   0.000000   0.000000
    51  H    0.000000   0.000000   0.000000   0.000000   0.000000   0.000000
    52  H    0.000000   0.000000   0.000000   0.000000   0.000000   0.000000
    53  H    0.000000   0.000000   0.000000   0.000000   0.000000   0.000000
    54  H    0.000000   0.000000   0.000000   0.000000   0.000000   0.000000
    55  H    0.000000   0.000000   0.000000   0.000000   0.000000   0.000000
    56  H    0.000000   0.000000   0.000000   0.000000   0.000000   0.000000
             43         44         45         46         47         48
     1  Mn   0.000000   0.000000   0.000000   0.000000   0.000000   0.000000
     2  Mn   0.000000   0.000000   0.000000   0.000000   0.000000   0.000000
     3  O    0.000000   0.000000   0.000000   0.000000   0.000000   0.000000
     4  O    0.000000   0.000000   0.000000   0.000000   0.000000   0.000000
     5  O    0.000000   0.000000   0.000000   0.000000   0.000000   0.000000
     6  O    0.000000   0.000000   0.000000   0.000000   0.000000   0.000000
     7  O    0.000000   0.000000   0.000000   0.000000   0.000000   0.000000
     8  O    0.000000   0.000000   0.000000   0.000000   0.000000   0.000000
     9  O    0.000000   0.000000   0.000000   0.000000   0.000000   0.000000
    10  O    0.000000   0.000000   0.000000   0.000000   0.000000   0.000000
    11  O    0.000000   0.000000   0.000000   0.000000   0.000000   0.000000
    12  O    0.000000   0.000000   0.000000   0.000000   0.000000   0.000000
    13  N    0.000000   0.000000   0.000000   0.000000   0.000000   0.000000
    14  N    0.000000   0.000000   0.000000   0.000000   0.000000   0.000000
    15  N    0.000000   0.000000   0.000000   0.000000   0.000000   0.000000
    16  N    0.000000   0.000000   0.000000   0.000000   0.000000   0.000000
    17  C    0.000000   0.000000   0.000000   0.000000   0.000000   0.000000
    18  C    0.000000   0.000000   0.000000   0.000000   0.000000   0.000000
    19  C    0.000000   0.000000   0.000000   0.000000   0.000000   0.000000
    20  C    0.000000   0.000000   0.000000   0.000000   0.000000   0.000000
    21  C    0.000000   0.000000   0.000000   0.000000   0.000000   0.000000
    22  C    0.000000   0.000000   0.000000   0.000000   0.000000   0.000000
    23  C    0.000000   0.000000   0.000000   0.000000   0.000000   0.000000
    24  C    0.000000   0.000000   0.000000   0.000000   0.000000   0.000000
    25  C    0.000000   0.000000   0.000000   0.000000   0.000000   0.000000
    26  C    0.000000   0.000000   0.000000   0.000000   0.000000   0.000000
    27  C    0.000000   0.000000   0.000000   0.000000   0.000000   0.000000
    28  C    0.000000   0.000000   0.000000   0.000000   0.000000   0.000000
    29  C    0.000000   0.000000   0.000000   0.000000   0.000000   0.000000
    30  C    0.000000   0.000000   0.000000   0.000000   0.000000   0.000000
    31  C    0.000000   0.000000   0.000000   0.000000   0.000000   0.000000
    32  C    0.000000   0.000000   0.000000   0.000000   0.000000   0.000000
    33  C    0.000000   0.000000   0.000000   0.000000   0.000000   0.000000
    34  C    0.000000   0.000000   0.000000   0.000000   0.000000   0.000000
    35  C    0.000000   0.000000   0.000000   0.000000   0.000000   0.000000
    36  C    0.000000   0.000000   0.000000   0.000000   0.000000   0.000000
    37  C    0.000000   0.000000   0.000000   0.000000   0.000000   0.000000
    38  C    0.000000   0.000000   0.000000   0.000000   0.000000   0.000000
[...]
              Bcc     0.0000     0.000     0.000     0.000  0.0000  0.0000  1.0000
 
              Baa     0.0000     0.000     0.000     0.000  1.0000  0.0000  0.0000
    49 H(1)   Bbb     0.0000     0.000     0.000     0.000  0.0000  1.0000  0.0000
              Bcc     0.0000     0.000     0.000     0.000  0.0000  0.0000  1.0000
 
              Baa     0.0000     0.000     0.000     0.000  1.0000  0.0000  0.0000
    50 H(1)   Bbb     0.0000     0.000     0.000     0.000  0.0000  1.0000  0.0000
              Bcc     0.0000     0.000     0.000     0.000  0.0000  0.0000  1.0000
 
              Baa     0.0000     0.000     0.000     0.000  1.0000  0.0000  0.0000
    51 H(1)   Bbb     0.0000     0.000     0.000     0.000  0.0000  1.0000  0.0000
              Bcc     0.0000     0.000     0.000     0.000  0.0000  0.0000  1.0000
 
              Baa     0.0000     0.000     0.000     0.000  1.0000  0.0000  0.0000
    52 H(1)   Bbb     0.0000     0.000     0.000     0.000  0.0000  1.0000  0.0000
              Bcc     0.0000     0.000     0.000     0.000  0.0000  0.0000  1.0000
 
              Baa     0.0000     0.000     0.000     0.000  1.0000  0.0000  0.0000
    53 H(1)   Bbb     0.0000     0.000     0.000     0.000  0.0000  1.0000  0.0000
              Bcc     0.0000     0.000     0.000     0.000  0.0000  0.0000  1.0000
 
              Baa     0.0000     0.000     0.000     0.000  1.0000  0.0000  0.0000
    54 H(1)   Bbb     0.0000     0.000     0.000     0.000  0.0000  1.0000  0.0000
              Bcc     0.0000     0.000     0.000     0.000  0.0000  0.0000  1.0000
 
              Baa     0.0000     0.000     0.000     0.000  1.0000  0.0000  0.0000
    55 H(1)   Bbb     0.0000     0.000     0.000     0.000  0.0000  1.0000  0.0000
              Bcc     0.0000     0.000     0.000     0.000  0.0000  0.0000  1.0000
 
              Baa     0.0000     0.000     0.000     0.000  1.0000  0.0000  0.0000
    56 H(1)   Bbb     0.0000     0.000     0.000     0.000  0.0000  1.0000  0.0000
              Bcc     0.0000     0.000     0.000     0.000  0.0000  0.0000  1.0000
 

 ---------------------------------------------------------------------------------

 Counterpoise: doing MCBS calculation for fragment   2
 Basis read from rwf:  (5D, 7F)
 Pseudo-potential data read from rwf file.
 Integral buffers will be    131072 words long.
 Raffenetti 2 integral format.
 Two-electron integral symmetry is turned off.
    43 basis functions,    75 primitive gaussians,    49 cartesian basis functions
     7 alpha electrons        4 beta electrons
       nuclear repulsion energy         0.0000000000 Hartrees.
 NAtoms=   56 NActive=    1 NUniq=    1 SFac= 7.50D-01 NAtFMM=   80 NAOKFM=F Big=F
 One-electron integrals computed using PRISM.
   1 Symmetry operations used in ECPInt.
 ECPInt:  NShTT=     120 NPrTT=     264 LenC2=     121 LenP2D=     264.
 LDataN:  DoStor=T MaxTD1= 6 Len=  172
 NBasis=    43 RedAO= T  NBF=    43
 NBsUse=    43 1.00D-06 NBFU=    43
 Harris functional with IExCor= 1009 diagonalized for initial guess.
 ExpMin= 1.00D-02 ExpMax= 2.95D+01 ExpMxC= 2.95D+01 IAcc=3 IRadAn=         0 AccDes= 0.00D+00
 HarFok:  IExCor= 1009 AccDes= 0.00D+00 IRadAn=         0 IDoV= 1
 ScaDFX=  1.000000  1.000000  1.000000  1.000000
 FoFCou: FMM=F IPFlag=           0 FMFlag=      100000 FMFlg1=           0
         NFxFlg=           0 DoJE=T BraDBF=F KetDBF=T FulRan=T
         Omega=  0.000000  0.000000  1.000000  0.000000  0.000000 ICntrl=     500 IOpCl=  0
         NMat0=    1 NMatS0=    1 NMatT0=    0 NMatD0=    1 NMtDS0=    0 NMtDT0=    0
         I1Cent=           4 NGrid=           0.
 Symmetry not used in FoFCou.
 Initial guess <Sx>= 0.0000 <Sy>= 0.0000 <Sz>= 1.5000 <S**2>= 3.7500 S= 1.5000

 **********************************************************************

            Population analysis using the SCF density.

 **********************************************************************

 Alpha  occ. eigenvalues --   -3.13374  -1.91526  -1.91526  -1.91526  -0.21229
 Alpha  occ. eigenvalues --   -0.21229  -0.21229
 Alpha virt. eigenvalues --   -0.21229  -0.21229  -0.18626  -0.04075  -0.04075
 Alpha virt. eigenvalues --   -0.04075  -0.01215   0.08208   0.08208   0.08208
 Alpha virt. eigenvalues --    0.10426   0.12695   0.12695   0.12695   0.12695
 Alpha virt. eigenvalues --    0.12695   0.74552   0.74552   0.74552   0.74552
 Alpha virt. eigenvalues --    0.74552   1.77546   1.77546   1.77546   2.22403
 Alpha virt. eigenvalues --    4.36259   4.36259   4.36259   4.36259   4.36259
 Alpha virt. eigenvalues --    4.36259   4.36259  36.27540  36.27540  36.27540
 Alpha virt. eigenvalues --   49.58006
  Beta  occ. eigenvalues --   -3.13374  -1.91526  -1.91526  -1.91526
  Beta virt. eigenvalues --   -0.21229  -0.21229  -0.21229  -0.21229  -0.21229
  Beta virt. eigenvalues --   -0.18626  -0.04075  -0.04075  -0.04075  -0.01215
  Beta virt. eigenvalues --    0.08208   0.08208   0.08208   0.10426   0.12695
  Beta virt. eigenvalues --    0.12695   0.12695   0.12695   0.12695   0.74552
  Beta virt. eigenvalues --    0.74552   0.74552   0.74552   0.74552   1.77546
  Beta virt. eigenvalues --    1.77546   1.77546   2.22403   4.36259   4.36259
  Beta virt. eigenvalues --    4.36259   4.36259   4.36259   4.36259   4.36259
  Beta virt. eigenvalues --   36.27540  36.27540  36.27540  49.58006
          Condensed to atoms (all electrons):
 Mulliken atomic charges:
              1
     1  Mn   4.000000
     2  Mn   0.000000
     3  O    0.000000
     4  O    0.000000
     5  O    0.000000
     6  O    0.000000
     7  O    0.000000
     8  O    0.000000
     9  O    0.000000
    10  O    0.000000
    11  O    0.000000
    12  O    0.000000
    13  N    0.000000
    14  N    0.000000
    15  N    0.000000
    16  N    0.000000
    17  C    0.000000
    18  C    0.000000
    19  C    0.000000
    20  C    0.000000
    21  C    0.000000
    22  C    0.000000
    23  C    0.000000
    24  C    0.000000
    25  C    0.000000
    26  C    0.000000
    27  C    0.000000
    28  C    0.000000
    29  C    0.000000
    30  C    0.000000
    31  C    0.000000
    32  C    0.000000
    33  C    0.000000
    34  C    0.000000
    35  C    0.000000
    36  C    0.000000
    37  C    0.000000
    38  C    0.000000
    39  C    0.000000
    40  C    0.000000
    41  H    0.000000
    42  H    0.000000
    43  H    0.000000
    44  H    0.000000
    45  H    0.000000
    46  H    0.000000
    47  H    0.000000
    48  H    0.000000
    49  H    0.000000
    50  H    0.000000
    51  H    0.000000
    52  H    0.000000
    53  H    0.000000
    54  H    0.000000
    55  H    0.000000
    56  H    0.000000
 Sum of Mulliken atomic charges =   4.00000
 Mulliken charges with hydrogens summed into heavy atoms:
              1
     1  Mn   4.000000
     2  Mn   0.000000
     3  O    0.000000
     4  O    0.000000
     5  O    0.000000
     6  O    0.000000
     7  O    0.000000
     8  O    0.000000
     9  O    0.000000
    10  O    0.000000
    11  O    0.000000
    12  O    0.000000
    13  N    0.000000
    14  N    0.000000
    15  N    0.000000
    16  N    0.000000
    17  C    0.000000
    18  C    0.000000
    19  C    0.000000
    20  C    0.000000
    21  C    0.000000
    22  C    0.000000
    23  C    0.000000
    24  C    0.000000
    25  C    0.000000
    26  C    0.000000
    27  C    0.000000
    28  C    0.000000
    29  C    0.000000
    30  C    0.000000
    31  C    0.000000
    32  C    0.000000
    33  C    0.000000
    34  C    0.000000
    35  C    0.000000
    36  C    0.000000
    37  C    0.000000
    38  C    0.000000
    39  C    0.000000
    40  C    0.000000
 Sum of Mulliken charges with hydrogens summed into heavy atoms =   4.00000
          Condensed to fragments (all electrons):
     1       0.000000
     2       4.000000
     3       0.000000
          Atomic-Atomic Spin Densities.
              1
     1  Mn   3.000000
 Mulliken atomic spin densities:
              1
     1  Mn   3.000000
     2  Mn   0.000000
     3  O    0.000000
     4  O    0.000000
     5  O    0.000000
     6  O    0.000000
     7  O    0.000000
     8  O    0.000000
     9  O    0.000000
    10  O    0.000000
    11  O    0.000000
    12  O    0.000000
    13  N    0.000000
    14  N    0.000000
    15  N    0.000000
    16  N    0.000000
    17  C    0.000000
    18  C    0.000000
    19  C    0.000000
    20  C    0.000000
    21  C    0.000000
    22  C    0.000000
    23  C    0.000000
    24  C    0.000000
    25  C    0.000000
    26  C    0.000000
    27  C    0.000000
    28  C    0.000000
    29  C    0.000000
    30  C    0.000000
    31  C    0.000000
    32  C    0.000000
    33  C    0.000000
    34  C    0.000000
    35  C    0.000000
    36  C    0.000000
    37  C    0.000000
    38  C    0.000000
    39  C    0.000000
    40  C    0.000000
    41  H    0.000000
    42  H    0.000000
    43  H    0.000000
    44  H    0.000000
    45  H    0.000000
    46  H    0.000000
    47  H    0.000000
    48  H    0.000000
    49  H    0.000000
    50  H    0.000000
    51  H    0.000000
    52  H    0.000000
    53  H    0.000000
    54  H    0.000000
    55  H    0.000000
    56  H    0.000000
 Sum of Mulliken atomic spin densities =   3.00000
 N-N= 0.000000000000D+00 E-N=-2.582439129888D+02  KE= 5.473006284655D+01
 --------------------------------------------------------
       Center         ----  Spin Dipole Couplings  ----
                      3XX-RR        3YY-RR        3ZZ-RR
 --------------------------------------------------------
     1   Atom       -2.510772      0.140673      2.370099
 --------------------------------------------------------
                        XY            XZ            YZ
 --------------------------------------------------------
     1   Atom        0.326431      0.190077     -1.111080
 --------------------------------------------------------


 ---------------------------------------------------------------------------------
              Anisotropic Spin Dipole Couplings in Principal Axis System
 ---------------------------------------------------------------------------------

       Atom             a.u.   MegaHertz   Gauss  10(-4) cm-1        Axes

              Baa    -2.5734  -339.536  -121.155  -113.257  0.9865 -0.1478 -0.0711
     1 Mn(55) Bbb    -0.2564   -33.826   -12.070   -11.283  0.1637  0.9128  0.3743
              Bcc     2.8298   373.362   133.225   124.540  0.0096 -0.3809  0.9246
 

 ---------------------------------------------------------------------------------

 Counterpoise: doing MCBS calculation for fragment   3
 Basis read from rwf:  (5D, 7F)
 Pseudo-potential data read from rwf file.
 Integral buffers will be    131072 words long.
 Raffenetti 2 integral format.
 Two-electron integral symmetry is turned off.
    43 basis functions,    75 primitive gaussians,    49 cartesian basis functions
     7 alpha electrons        4 beta electrons
       nuclear repulsion energy         0.0000000000 Hartrees.
 NAtoms=   56 NActive=    1 NUniq=    1 SFac= 7.50D-01 NAtFMM=   80 NAOKFM=F Big=F
 One-electron integrals computed using PRISM.
   1 Symmetry operations used in ECPInt.
 ECPInt:  NShTT=     120 NPrTT=     264 LenC2=     121 LenP2D=     264.
 LDataN:  DoStor=T MaxTD1= 6 Len=  172
 NBasis=    43 RedAO= T  NBF=    43
 NBsUse=    43 1.00D-06 NBFU=    43
 Harris functional with IExCor= 1009 diagonalized for initial guess.
 ExpMin= 1.00D-02 ExpMax= 2.95D+01 ExpMxC= 2.95D+01 IAcc=3 IRadAn=         0 AccDes= 0.00D+00
 HarFok:  IExCor= 1009 AccDes= 0.00D+00 IRadAn=         0 IDoV= 1
 ScaDFX=  1.000000  1.000000  1.000000  1.000000
 FoFCou: FMM=F IPFlag=           0 FMFlag=      100000 FMFlg1=           0
         NFxFlg=           0 DoJE=T BraDBF=F KetDBF=T FulRan=T
         Omega=  0.000000  0.000000  1.000000  0.000000  0.000000 ICntrl=     500 IOpCl=  0
         NMat0=    1 NMatS0=    1 NMatT0=    0 NMatD0=    1 NMtDS0=    0 NMtDT0=    0
         I1Cent=           4 NGrid=           0.
 Symmetry not used in FoFCou.
 Initial guess <Sx>= 0.0000 <Sy>= 0.0000 <Sz>= 1.5000 <S**2>= 3.7500 S= 1.5000

 **********************************************************************

            Population analysis using the SCF density.

 **********************************************************************

 Alpha  occ. eigenvalues --   -3.13374  -1.91526  -1.91526  -1.91526  -0.21229
 Alpha  occ. eigenvalues --   -0.21229  -0.21229
 Alpha virt. eigenvalues --   -0.21229  -0.21229  -0.18626  -0.04075  -0.04075
 Alpha virt. eigenvalues --   -0.04075  -0.01215   0.08208   0.08208   0.08208
 Alpha virt. eigenvalues --    0.10426   0.12695   0.12695   0.12695   0.12695
 Alpha virt. eigenvalues --    0.12695   0.74552   0.74552   0.74552   0.74552
 Alpha virt. eigenvalues --    0.74552   1.77546   1.77546   1.77546   2.22403
 Alpha virt. eigenvalues --    4.36259   4.36259   4.36259   4.36259   4.36259
 Alpha virt. eigenvalues --    4.36259   4.36259  36.27540  36.27540  36.27540
 Alpha virt. eigenvalues --   49.58006
  Beta  occ. eigenvalues --   -3.13374  -1.91526  -1.91526  -1.91526
  Beta virt. eigenvalues --   -0.21229  -0.21229  -0.21229  -0.21229  -0.21229
  Beta virt. eigenvalues --   -0.18626  -0.04075  -0.04075  -0.04075  -0.01215
  Beta virt. eigenvalues --    0.08208   0.08208   0.08208   0.10426   0.12695
  Beta virt. eigenvalues --    0.12695   0.12695   0.12695   0.12695   0.74552
  Beta virt. eigenvalues --    0.74552   0.74552   0.74552   0.74552   1.77546
  Beta virt. eigenvalues --    1.77546   1.77546   2.22403   4.36259   4.36259
  Beta virt. eigenvalues --    4.36259   4.36259   4.36259   4.36259   4.36259
  Beta virt. eigenvalues --   36.27540  36.27540  36.27540  49.58006
          Condensed to atoms (all electrons):
 Mulliken atomic charges:
              1
     1  Mn   0.000000
     2  Mn   4.000000
     3  O    0.000000
     4  O    0.000000
     5  O    0.000000
     6  O    0.000000
     7  O    0.000000
     8  O    0.000000
     9  O    0.000000
    10  O    0.000000
    11  O    0.000000
    12  O    0.000000
    13  N    0.000000
    14  N    0.000000
    15  N    0.000000
    16  N    0.000000
    17  C    0.000000
    18  C    0.000000
    19  C    0.000000
    20  C    0.000000
    21  C    0.000000
    22  C    0.000000
    23  C    0.000000
    24  C    0.000000
    25  C    0.000000
    26  C    0.000000
    27  C    0.000000
    28  C    0.000000
    29  C    0.000000
    30  C    0.000000
    31  C    0.000000
    32  C    0.000000
    33  C    0.000000
    34  C    0.000000
    35  C    0.000000
    36  C    0.000000
    37  C    0.000000
    38  C    0.000000
    39  C    0.000000
    40  C    0.000000
    41  H    0.000000
    42  H    0.000000
    43  H    0.000000
    44  H    0.000000
    45  H    0.000000
    46  H    0.000000
    47  H    0.000000
    48  H    0.000000
    49  H    0.000000
    50  H    0.000000
    51  H    0.000000
    52  H    0.000000
    53  H    0.000000
    54  H    0.000000
    55  H    0.000000
    56  H    0.000000
 Sum of Mulliken atomic charges =   4.00000
 Mulliken charges with hydrogens summed into heavy atoms:
              1
     1  Mn   0.000000
     2  Mn   4.000000
     3  O    0.000000
     4  O    0.000000
     5  O    0.000000
     6  O    0.000000
     7  O    0.000000
     8  O    0.000000
     9  O    0.000000
    10  O    0.000000
    11  O    0.000000
    12  O    0.000000
    13  N    0.000000
    14  N    0.000000
    15  N    0.000000
    16  N    0.000000
    17  C    0.000000
    18  C    0.000000
    19  C    0.000000
    20  C    0.000000
    21  C    0.000000
    22  C    0.000000
    23  C    0.000000
    24  C    0.000000
    25  C    0.000000
    26  C    0.000000
    27  C    0.000000
    28  C    0.000000
    29  C    0.000000
    30  C    0.000000
    31  C    0.000000
    32  C    0.000000
    33  C    0.000000
    34  C    0.000000
    35  C    0.000000
    36  C    0.000000
    37  C    0.000000
    38  C    0.000000
    39  C    0.000000
    40  C    0.000000
 Sum of Mulliken charges with hydrogens summed into heavy atoms =   4.00000
          Condensed to fragments (all electrons):
     1       0.000000
     2       0.000000
     3       4.000000
          Atomic-Atomic Spin Densities.
              1
     1  Mn   3.000000
 Mulliken atomic spin densities:
              1
     1  Mn   0.000000
     2  Mn   3.000000
     3  O    0.000000
     4  O    0.000000
     5  O    0.000000
     6  O    0.000000
     7  O    0.000000
     8  O    0.000000
     9  O    0.000000
    10  O    0.000000
    11  O    0.000000
    12  O    0.000000
    13  N    0.000000
    14  N    0.000000
    15  N    0.000000
    16  N    0.000000
    17  C    0.000000
    18  C    0.000000
    19  C    0.000000
    20  C    0.000000
    21  C    0.000000
    22  C    0.000000
    23  C    0.000000
    24  C    0.000000
    25  C    0.000000
    26  C    0.000000
    27  C    0.000000
    28  C    0.000000
    29  C    0.000000
    30  C    0.000000
    31  C    0.000000
    32  C    0.000000
    33  C    0.000000
    34  C    0.000000
    35  C    0.000000
    36  C    0.000000
    37  C    0.000000
    38  C    0.000000
    39  C    0.000000
    40  C    0.000000
    41  H    0.000000
    42  H    0.000000
    43  H    0.000000
    44  H    0.000000
    45  H    0.000000
    46  H    0.000000
    47  H    0.000000
    48  H    0.000000
    49  H    0.000000
    50  H    0.000000
    51  H    0.000000
    52  H    0.000000
    53  H    0.000000
    54  H    0.000000
    55  H    0.000000
    56  H    0.000000
 Sum of Mulliken atomic spin densities =   3.00000
 N-N= 0.000000000000D+00 E-N=-2.582439129888D+02  KE= 5.473006284655D+01
 --------------------------------------------------------
       Center         ----  Spin Dipole Couplings  ----
                      3XX-RR        3YY-RR        3ZZ-RR
 --------------------------------------------------------
     2   Atom        1.033249     -0.057504     -0.975745
 --------------------------------------------------------
                        XY            XZ            YZ
 --------------------------------------------------------
     2   Atom        0.222191     -0.434315     -1.487638
 --------------------------------------------------------


 ---------------------------------------------------------------------------------
              Anisotropic Spin Dipole Couplings in Principal Axis System
 ---------------------------------------------------------------------------------

       Atom             a.u.   MegaHertz   Gauss  10(-4) cm-1        Axes

              Baa    -2.0890  -275.621   -98.348   -91.937  0.0709  0.5843  0.8085
     2 Mn(55) Bbb     0.6089    80.336    28.666    26.797  0.7016 -0.6053  0.3759
              Bcc     1.4801   195.285    69.682    65.140  0.7090  0.5406 -0.4529
 

 ---------------------------------------------------------------------------------

 FinFrg:  NACore=    38 NAVal2=   108 NAVal1=     3 NBCore=    38 NBVal2=   108 NBVal1=     3

 This type of calculation cannot be archived.


 THE ENLIGHTENED ONE, BECAUSE HE SAW MANKIND DROWNING  
 IN THE GREAT SEA OF BIRTH, DEATH, AND SORROW, LONGED TO SAVE 
 THEM, FOR THIS HE WAS MOVED TO PITY.                         
 BECAUSE HE SAW MEN OF THE WORLD STRAYING IN FALSE PATHS, AND 
 NONE TO GUIDE THEM, FOR THIS HE WAS MOVED TO PITY.           
                     ..................                       
 BECAUSE HE SAW THE MEN OF THE WORLD PLOUGHING THEIR FIELDS,  
 SOWING THE SEED, TRAFFICKING, HUCKSTERING, BUYING, SELLING,  
 AND AT THE END WINNOWING NOTHING BUT BITTERNESS,             
 FOR THIS HE WAS MOVED TO PITY......                   
                   BUDAH'S PITY - UPSAKA SILA SUTRA           
 Job cpu time:  0 days  0 hours  2 minutes 24.2 seconds.
 File lengths (MBytes):  RWF=     98 Int=      0 D2E=      0 Chk=     54 Scr=      1
 Normal termination of Gaussian 09 at Sun Nov 29 18:01:49 2020.
