 Entering Gaussian System, Link 0=g09
 Input=ferromagnetic.com
 Output=ferromagnetic.out
 Initial command:
 /home/support/apps/apps/gaussian/intel/15.0.6/g09/l1.exe /tmp/Gau-29850.inp -scrdir=/tmp/
 Entering Link 1 = /home/support/apps/apps/gaussian/intel/15.0.6/g09/l1.exe PID=     29851.
  
 Copyright (c) 1988,1990,1992,1993,1995,1998,2003,2009, Gaussian, Inc.
                  All Rights Reserved.
  
 This is part of the Gaussian(R) 09 program.  It is based on
 the Gaussian(R) 03 system (copyright 2003, Gaussian, Inc.),
 the Gaussian(R) 98 system (copyright 1998, Gaussian, Inc.),
 the Gaussian(R) 94 system (copyright 1995, Gaussian, Inc.),
 the Gaussian 92(TM) system (copyright 1992, Gaussian, Inc.),
 the Gaussian 90(TM) system (copyright 1990, Gaussian, Inc.),
 the Gaussian 88(TM) system (copyright 1988, Gaussian, Inc.),
 the Gaussian 86(TM) system (copyright 1986, Carnegie Mellon
 University), and the Gaussian 82(TM) system (copyright 1983,
 Carnegie Mellon University). Gaussian is a federally registered
 trademark of Gaussian, Inc.
  
 This software contains proprietary and confidential information,
 including trade secrets, belonging to Gaussian, Inc.
  
 This software is provided under written license and may be
 used, copied, transmitted, or stored only in accord with that
 written license.
  
 The following legend is applicable only to US Government
 contracts under FAR:
  
                    RESTRICTED RIGHTS LEGEND
  
 Use, reproduction and disclosure by the US Government is
 subject to restrictions as set forth in subparagraphs (a)
 and (c) of the Commercial Computer Software - Restricted
 Rights clause in FAR 52.227-19.
  
 Gaussian, Inc.
 340 Quinnipiac St., Bldg. 40, Wallingford CT 06492
  
  
 ---------------------------------------------------------------
 Warning -- This program may not be used in any manner that
 competes with the business of Gaussian, Inc. or will provide
 assistance to any competitor of Gaussian, Inc.  The licensee
 of this program is prohibited from giving any competitor of
 Gaussian, Inc. access to this program.  By using this program,
 the user acknowledges that Gaussian, Inc. is engaged in the
 business of creating and licensing software in the field of
 computational chemistry and represents and warrants to the
 licensee that it is not a competitor of Gaussian, Inc. and that
 it will not use this program in any manner prohibited above.
 ---------------------------------------------------------------
  

 Cite this work as:
 Gaussian 09, Revision A.02,
 M. J. Frisch, G. W. Trucks, H. B. Schlegel, G. E. Scuseria, 
 M. A. Robb, J. R. Cheeseman, G. Scalmani, V. Barone, B. Mennucci, 
 G. A. Petersson, H. Nakatsuji, M. Caricato, X. Li, H. P. Hratchian, 
 A. F. Izmaylov, J. Bloino, G. Zheng, J. L. Sonnenberg, M. Hada, 
 M. Ehara, K. Toyota, R. Fukuda, J. Hasegawa, M. Ishida, T. Nakajima, 
 Y. Honda, O. Kitao, H. Nakai, T. Vreven, J. A. Montgomery, Jr., 
 J. E. Peralta, F. Ogliaro, M. Bearpark, J. J. Heyd, E. Brothers, 
 K. N. Kudin, V. N. Staroverov, R. Kobayashi, J. Normand, 
 K. Raghavachari, A. Rendell, J. C. Burant, S. S. Iyengar, J. Tomasi, 
 M. Cossi, N. Rega, J. M. Millam, M. Klene, J. E. Knox, J. B. Cross, 
 V. Bakken, C. Adamo, J. Jaramillo, R. Gomperts, R. E. Stratmann, 
 O. Yazyev, A. J. Austin, R. Cammi, C. Pomelli, J. W. Ochterski, 
 R. L. Martin, K. Morokuma, V. G. Zakrzewski, G. A. Voth, 
 P. Salvador, J. J. Dannenberg, S. Dapprich, A. D. Daniels, 
 O. Farkas, J. B. Foresman, J. V. Ortiz, J. Cioslowski, 
 and D. J. Fox, Gaussian, Inc., Wallingford CT, 2009.
 
 ******************************************
 Gaussian 09:  EM64L-G09RevA.02 11-Jun-2009
                29-Nov-2020 
 ******************************************
 %nprocshared=16
 Will use up to   16 processors via shared memory.
 %mem=50000MB
 %chk=ferromagnetic.chk
 -------------------------------------------------------
 # opt upbe1pbe/gen geom=allcheck guess=read pseudo=read
 -------------------------------------------------------
 1/14=-1,18=20,19=15,26=3,29=7,38=1/1,3;
 2/9=110,12=2,40=1/2;
 3/5=7,11=2,14=-4,16=1,17=8,25=1,30=1,71=1,74=-13,116=2/1,2,3;
 4/5=1/1;
 5/5=2,38=6/2;
 6/7=2,8=2,9=2,10=2,28=1/1;
 7//1,2,3,16;
 1/14=-1,18=20,19=15/3(2);
 2/9=110/2;
 99//99;
 2/9=110/2;
 3/5=7,6=1,11=2,14=-2,16=1,17=8,25=1,30=1,71=1,74=-13,82=7,116=2/1,2,3;
 4/5=5,16=3/1;
 5/5=2,38=5/2;
 7//1,2,3,16;
 1/14=-1,18=20,19=15/3(-5);
 2/9=110/2;
 6/7=2,8=2,9=2,10=2,19=2,28=1/1;
 99/9=1/99;
 ------
 JAVYEK
 ------
 Redundant internal coordinates taken from checkpoint file:
 ferromagnetic.chk
 Charge =  0 Multiplicity = 7
 Mn,0,9.6884973285,3.2294980506,5.2887671999
 Mn,0,9.6884980506,3.2294973285,2.5742328001
 O,0,8.8447542176,4.0732419704,3.9314996355
 O,0,10.4459559948,2.0463908103,6.6148266324
 O,0,10.0425534732,0.19422941,7.834922785
 O,0,10.5322419704,2.3857542176,3.9315003645
 O,0,8.931037902,4.4126047564,6.6148266571
 O,0,10.8716047564,2.472037902,1.2481733429
 O,0,8.5053908103,3.9869559948,1.2481733676
 O,0,9.3344328092,6.2647780345,7.8349073035
 O,0,12.7237780345,2.8754328092,0.0280926965
 O,0,6.65322941,3.5835534732,0.028077215
 N,0,8.0943382674,2.0474959593,5.5780717793
 N,0,11.282655627,4.4115014114,5.5780716573
 N,0,10.8705014114,4.823655627,2.2849283427
 N,0,8.5064959593,1.6353382674,2.2849282207
 C,0,6.8801765591,2.2401943914,5.056569073
 C,0,5.8212238682,1.4169033108,5.4153383511
 C,0,6.0406998353,0.3889496472,6.3312865665
 C,0,7.3075187908,0.2203937671,6.8788158975
 C,0,8.3148037473,1.0864908985,6.4829941239
 C,0,9.7146276601,1.0623867453,7.0520282531
 C,0,12.4968174109,4.2188046616,5.0565684547
 C,0,11.0621887276,5.3725079964,6.4829920828
 C,0,9.6623669837,5.3966066724,7.0520317373
 C,0,10.6778046616,6.0378174109,2.8064315453
 C,0,11.8315079964,4.6031887276,1.3800079172
 C,0,8.6991943914,0.4211765591,2.806430927
 C,0,7.5454908985,1.8558037473,1.3800058761
 C,0,11.8556066724,3.2033669837,0.8109682627
 C,0,7.5213867453,3.2556276601,0.8109717469
 C,0,13.5557684705,5.0420991147,5.4153348272
 C,0,12.0694720048,6.238608452,6.878810935
 C,0,11.5010991147,7.0967684705,2.4476651728
 C,0,12.697608452,5.6104720048,0.984189065
 C,0,7.8759033108,-0.6377761318,2.4476616489
 C,0,6.6793937671,0.8485187908,0.9841841025
 C,0,13.3362908316,6.0700544869,6.3312806978
 C,0,12.5290544869,6.8772908316,1.5317193022
 C,0,6.8479496472,-0.4183001647,1.5317134335
 H,0,6.7969228788,3.0675605536,4.3586582127
 H,0,4.8409453748,1.5896753821,4.9850734117
 H,0,5.2242235953,-0.2644629271,6.6246566345
 H,0,7.5480044255,-0.5416818273,7.6122052441
 H,0,12.5800723771,3.3914374988,4.3586588904
 H,0,9.8504374988,6.1210723771,3.5043411096
 H,0,9.5265605536,0.3379228788,3.5043417873
 H,0,14.5360468852,4.8693285296,4.9850690979
 H,0,11.8289854447,7.0006842143,7.6121998282
 H,0,11.3283285296,8.0770468852,2.8779309021
 H,0,13.4596842143,5.3699854447,0.2508001718
 H,0,8.0486753821,-1.6180546252,2.8779265883
 H,0,5.9173181727,1.0890044255,0.2507947559
 H,0,14.1527658672,6.7234694253,6.6246487899
 H,0,13.1824694253,7.6937658672,1.2383512101
 H,0,6.1945370729,-1.2347764047,1.2383433655
 Recover connectivity data from disk.

 GradGradGradGradGradGradGradGradGradGradGradGradGradGradGradGradGradGrad
 Berny optimization.
 Initialization pass.
                           ----------------------------
                           !    Initial Parameters    !
                           ! (Angstroms and Degrees)  !
 --------------------------                            --------------------------
 ! Name  Definition              Value          Derivative Info.                !
 --------------------------------------------------------------------------------
 ! R1    R(1,2)                  2.7145         estimate D2E/DX2                !
 ! R2    R(1,3)                  1.8072         estimate D2E/DX2                !
 ! R3    R(1,4)                  1.9318         estimate D2E/DX2                !
 ! R4    R(1,6)                  1.8072         estimate D2E/DX2                !
 ! R5    R(1,7)                  1.9318         estimate D2E/DX2                !
 ! R6    R(1,13)                 2.0055         estimate D2E/DX2                !
 ! R7    R(1,14)                 2.0055         estimate D2E/DX2                !
 ! R8    R(2,3)                  1.8072         estimate D2E/DX2                !
 ! R9    R(2,6)                  1.8072         estimate D2E/DX2                !
 ! R10   R(2,8)                  1.9318         estimate D2E/DX2                !
 ! R11   R(2,9)                  1.9318         estimate D2E/DX2                !
 ! R12   R(2,15)                 2.0055         estimate D2E/DX2                !
 ! R13   R(2,16)                 2.0055         estimate D2E/DX2                !
 ! R14   R(4,22)                 1.3016         estimate D2E/DX2                !
 ! R15   R(5,22)                 1.2141         estimate D2E/DX2                !
 ! R16   R(7,25)                 1.3016         estimate D2E/DX2                !
 ! R17   R(8,30)                 1.3016         estimate D2E/DX2                !
 ! R18   R(9,31)                 1.3016         estimate D2E/DX2                !
 ! R19   R(10,25)                1.2141         estimate D2E/DX2                !
 ! R20   R(11,30)                1.2141         estimate D2E/DX2                !
 ! R21   R(12,31)                1.2141         estimate D2E/DX2                !
 ! R22   R(13,17)                1.3354         estimate D2E/DX2                !
 ! R23   R(13,21)                1.3383         estimate D2E/DX2                !
 ! R24   R(14,23)                1.3354         estimate D2E/DX2                !
 ! R25   R(14,24)                1.3383         estimate D2E/DX2                !
 ! R26   R(15,26)                1.3354         estimate D2E/DX2                !
 ! R27   R(15,27)                1.3383         estimate D2E/DX2                !
 ! R28   R(16,28)                1.3354         estimate D2E/DX2                !
 ! R29   R(16,29)                1.3383         estimate D2E/DX2                !
 ! R30   R(17,18)                1.3885         estimate D2E/DX2                !
 ! R31   R(17,41)                1.0856         estimate D2E/DX2                !
 ! R32   R(18,19)                1.3942         estimate D2E/DX2                !
 ! R33   R(18,42)                1.0844         estimate D2E/DX2                !
 ! R34   R(19,20)                1.3903         estimate D2E/DX2                !
 ! R35   R(19,43)                1.0861         estimate D2E/DX2                !
 ! R36   R(20,21)                1.3862         estimate D2E/DX2                !
 ! R37   R(20,44)                1.0846         estimate D2E/DX2                !
 ! R38   R(21,22)                1.5113         estimate D2E/DX2                !
 ! R39   R(23,32)                1.3885         estimate D2E/DX2                !
 ! R40   R(23,45)                1.0856         estimate D2E/DX2                !
 ! R41   R(24,25)                1.5113         estimate D2E/DX2                !
 ! R42   R(24,33)                1.3862         estimate D2E/DX2                !
 ! R43   R(26,34)                1.3885         estimate D2E/DX2                !
 ! R44   R(26,46)                1.0856         estimate D2E/DX2                !
 ! R45   R(27,30)                1.5113         estimate D2E/DX2                !
 ! R46   R(27,35)                1.3862         estimate D2E/DX2                !
 ! R47   R(28,36)                1.3885         estimate D2E/DX2                !
 ! R48   R(28,47)                1.0856         estimate D2E/DX2                !
 ! R49   R(29,31)                1.5113         estimate D2E/DX2                !
 ! R50   R(29,37)                1.3862         estimate D2E/DX2                !
 ! R51   R(32,38)                1.3942         estimate D2E/DX2                !
 ! R52   R(32,48)                1.0844         estimate D2E/DX2                !
 ! R53   R(33,38)                1.3903         estimate D2E/DX2                !
 ! R54   R(33,49)                1.0846         estimate D2E/DX2                !
 ! R55   R(34,39)                1.3942         estimate D2E/DX2                !
 ! R56   R(34,50)                1.0844         estimate D2E/DX2                !
 ! R57   R(35,39)                1.3903         estimate D2E/DX2                !
 ! R58   R(35,51)                1.0846         estimate D2E/DX2                !
 ! R59   R(36,40)                1.3942         estimate D2E/DX2                !
 ! R60   R(36,52)                1.0844         estimate D2E/DX2                !
 ! R61   R(37,40)                1.3903         estimate D2E/DX2                !
 ! R62   R(37,53)                1.0846         estimate D2E/DX2                !
 ! R63   R(38,54)                1.0861         estimate D2E/DX2                !
 ! R64   R(39,55)                1.0861         estimate D2E/DX2                !
 ! R65   R(40,56)                1.0861         estimate D2E/DX2                !
 ! A1    A(2,1,4)              133.3482         estimate D2E/DX2                !
 ! A2    A(2,1,7)              133.3483         estimate D2E/DX2                !
 ! A3    A(2,1,13)              98.294          estimate D2E/DX2                !
 ! A4    A(2,1,14)              98.294          estimate D2E/DX2                !
 ! A5    A(3,1,4)              169.9069         estimate D2E/DX2                !
 ! A6    A(3,1,6)               82.6403         estimate D2E/DX2                !
 ! A7    A(3,1,7)               92.6675         estimate D2E/DX2                !
 ! A8    A(3,1,13)              90.71           estimate D2E/DX2                !
 ! A9    A(3,1,14)             101.7877         estimate D2E/DX2                !
 ! A10   A(4,1,6)               92.6674         estimate D2E/DX2                !
 ! A11   A(4,1,7)               93.3035         estimate D2E/DX2                !
 ! A12   A(4,1,13)              81.4716         estimate D2E/DX2                !
 ! A13   A(4,1,14)              87.149          estimate D2E/DX2                !
 ! A14   A(6,1,7)              169.9069         estimate D2E/DX2                !
 ! A15   A(6,1,13)             101.7878         estimate D2E/DX2                !
 ! A16   A(6,1,14)              90.71           estimate D2E/DX2                !
 ! A17   A(7,1,13)              87.1489         estimate D2E/DX2                !
 ! A18   A(7,1,14)              81.4716         estimate D2E/DX2                !
 ! A19   A(13,1,14)            163.4119         estimate D2E/DX2                !
 ! A20   A(1,2,8)              133.3483         estimate D2E/DX2                !
 ! A21   A(1,2,9)              133.3482         estimate D2E/DX2                !
 ! A22   A(1,2,15)              98.294          estimate D2E/DX2                !
 ! A23   A(1,2,16)              98.294          estimate D2E/DX2                !
 ! A24   A(3,2,6)               82.6403         estimate D2E/DX2                !
 ! A25   A(3,2,8)              169.9069         estimate D2E/DX2                !
 ! A26   A(3,2,9)               92.6674         estimate D2E/DX2                !
 ! A27   A(3,2,15)              90.71           estimate D2E/DX2                !
 ! A28   A(3,2,16)             101.7878         estimate D2E/DX2                !
 ! A29   A(6,2,8)               92.6675         estimate D2E/DX2                !
 ! A30   A(6,2,9)              169.9069         estimate D2E/DX2                !
 ! A31   A(6,2,15)             101.7877         estimate D2E/DX2                !
 ! A32   A(6,2,16)              90.71           estimate D2E/DX2                !
 ! A33   A(8,2,9)               93.3035         estimate D2E/DX2                !
 ! A34   A(8,2,15)              81.4716         estimate D2E/DX2                !
 ! A35   A(8,2,16)              87.1489         estimate D2E/DX2                !
 ! A36   A(9,2,15)              87.149          estimate D2E/DX2                !
 ! A37   A(9,2,16)              81.4716         estimate D2E/DX2                !
 ! A38   A(15,2,16)            163.4119         estimate D2E/DX2                !
 ! A39   A(1,4,22)             118.2452         estimate D2E/DX2                !
 ! A40   A(1,7,25)             118.2452         estimate D2E/DX2                !
 ! A41   A(2,8,30)             118.2452         estimate D2E/DX2                !
 ! A42   A(2,9,31)             118.2452         estimate D2E/DX2                !
 ! A43   A(1,13,17)            125.5445         estimate D2E/DX2                !
 ! A44   A(1,13,21)            112.9428         estimate D2E/DX2                !
 ! A45   A(17,13,21)           121.1623         estimate D2E/DX2                !
 ! A46   A(1,14,23)            125.5445         estimate D2E/DX2                !
 ! A47   A(1,14,24)            112.9428         estimate D2E/DX2                !
 ! A48   A(23,14,24)           121.1623         estimate D2E/DX2                !
 ! A49   A(2,15,26)            125.5445         estimate D2E/DX2                !
 ! A50   A(2,15,27)            112.9428         estimate D2E/DX2                !
 ! A51   A(26,15,27)           121.1623         estimate D2E/DX2                !
 ! A52   A(2,16,28)            125.5445         estimate D2E/DX2                !
 ! A53   A(2,16,29)            112.9428         estimate D2E/DX2                !
 ! A54   A(28,16,29)           121.1623         estimate D2E/DX2                !
 ! A55   A(13,17,18)           120.4614         estimate D2E/DX2                !
 ! A56   A(13,17,41)           115.5157         estimate D2E/DX2                !
 ! A57   A(18,17,41)           124.0224         estimate D2E/DX2                !
 ! A58   A(17,18,19)           119.135          estimate D2E/DX2                !
 ! A59   A(17,18,42)           119.5013         estimate D2E/DX2                !
 ! A60   A(19,18,42)           121.3621         estimate D2E/DX2                !
 ! A61   A(18,19,20)           119.442          estimate D2E/DX2                !
 ! A62   A(18,19,43)           120.1774         estimate D2E/DX2                !
 ! A63   A(20,19,43)           120.3744         estimate D2E/DX2                !
 ! A64   A(19,20,21)           118.2888         estimate D2E/DX2                !
 ! A65   A(19,20,44)           123.606          estimate D2E/DX2                !
 ! A66   A(21,20,44)           118.0968         estimate D2E/DX2                !
 ! A67   A(13,21,20)           121.4698         estimate D2E/DX2                !
 ! A68   A(13,21,22)           114.7491         estimate D2E/DX2                !
 ! A69   A(20,21,22)           123.7528         estimate D2E/DX2                !
 ! A70   A(4,22,5)             127.2563         estimate D2E/DX2                !
 ! A71   A(4,22,21)            112.4513         estimate D2E/DX2                !
 ! A72   A(5,22,21)            120.2894         estimate D2E/DX2                !
 ! A73   A(14,23,32)           120.4614         estimate D2E/DX2                !
 ! A74   A(14,23,45)           115.5157         estimate D2E/DX2                !
 ! A75   A(32,23,45)           124.0223         estimate D2E/DX2                !
 ! A76   A(14,24,25)           114.7491         estimate D2E/DX2                !
 ! A77   A(14,24,33)           121.4698         estimate D2E/DX2                !
 ! A78   A(25,24,33)           123.7527         estimate D2E/DX2                !
 ! A79   A(7,25,10)            127.2563         estimate D2E/DX2                !
 ! A80   A(7,25,24)            112.4513         estimate D2E/DX2                !
 ! A81   A(10,25,24)           120.2894         estimate D2E/DX2                !
 ! A82   A(15,26,34)           120.4614         estimate D2E/DX2                !
 ! A83   A(15,26,46)           115.5157         estimate D2E/DX2                !
 ! A84   A(34,26,46)           124.0223         estimate D2E/DX2                !
 ! A85   A(15,27,30)           114.7491         estimate D2E/DX2                !
 ! A86   A(15,27,35)           121.4698         estimate D2E/DX2                !
 ! A87   A(30,27,35)           123.7527         estimate D2E/DX2                !
 ! A88   A(16,28,36)           120.4614         estimate D2E/DX2                !
 ! A89   A(16,28,47)           115.5157         estimate D2E/DX2                !
 ! A90   A(36,28,47)           124.0224         estimate D2E/DX2                !
 ! A91   A(16,29,31)           114.7491         estimate D2E/DX2                !
 ! A92   A(16,29,37)           121.4698         estimate D2E/DX2                !
 ! A93   A(31,29,37)           123.7528         estimate D2E/DX2                !
 ! A94   A(8,30,11)            127.2563         estimate D2E/DX2                !
 ! A95   A(8,30,27)            112.4513         estimate D2E/DX2                !
 ! A96   A(11,30,27)           120.2894         estimate D2E/DX2                !
 ! A97   A(9,31,12)            127.2563         estimate D2E/DX2                !
 ! A98   A(9,31,29)            112.4513         estimate D2E/DX2                !
 ! A99   A(12,31,29)           120.2894         estimate D2E/DX2                !
 ! A100  A(23,32,38)           119.135          estimate D2E/DX2                !
 ! A101  A(23,32,48)           119.5013         estimate D2E/DX2                !
 ! A102  A(38,32,48)           121.3621         estimate D2E/DX2                !
 ! A103  A(24,33,38)           118.2888         estimate D2E/DX2                !
 ! A104  A(24,33,49)           118.0968         estimate D2E/DX2                !
 ! A105  A(38,33,49)           123.606          estimate D2E/DX2                !
 ! A106  A(26,34,39)           119.135          estimate D2E/DX2                !
 ! A107  A(26,34,50)           119.5013         estimate D2E/DX2                !
 ! A108  A(39,34,50)           121.3621         estimate D2E/DX2                !
 ! A109  A(27,35,39)           118.2888         estimate D2E/DX2                !
 ! A110  A(27,35,51)           118.0968         estimate D2E/DX2                !
 ! A111  A(39,35,51)           123.606          estimate D2E/DX2                !
 ! A112  A(28,36,40)           119.135          estimate D2E/DX2                !
 ! A113  A(28,36,52)           119.5013         estimate D2E/DX2                !
 ! A114  A(40,36,52)           121.3621         estimate D2E/DX2                !
 ! A115  A(29,37,40)           118.2888         estimate D2E/DX2                !
 ! A116  A(29,37,53)           118.0968         estimate D2E/DX2                !
 ! A117  A(40,37,53)           123.606          estimate D2E/DX2                !
 ! A118  A(32,38,33)           119.4419         estimate D2E/DX2                !
 ! A119  A(32,38,54)           120.1774         estimate D2E/DX2                !
 ! A120  A(33,38,54)           120.3744         estimate D2E/DX2                !
 ! A121  A(34,39,35)           119.4419         estimate D2E/DX2                !
 ! A122  A(34,39,55)           120.1774         estimate D2E/DX2                !
 ! A123  A(35,39,55)           120.3744         estimate D2E/DX2                !
 ! A124  A(36,40,37)           119.442          estimate D2E/DX2                !
 ! A125  A(36,40,56)           120.1774         estimate D2E/DX2                !
 ! A126  A(37,40,56)           120.3744         estimate D2E/DX2                !
 ! D1    D(4,1,2,8)            -24.7429         estimate D2E/DX2                !
 ! D2    D(4,1,2,9)            155.257          estimate D2E/DX2                !
 ! D3    D(4,1,2,15)          -110.8161         estimate D2E/DX2                !
 ! D4    D(4,1,2,16)            69.1839         estimate D2E/DX2                !
 ! D5    D(7,1,2,8)            155.2571         estimate D2E/DX2                !
 ! D6    D(7,1,2,9)            -24.7429         estimate D2E/DX2                !
 ! D7    D(7,1,2,15)            69.184          estimate D2E/DX2                !
 ! D8    D(7,1,2,16)          -110.8161         estimate D2E/DX2                !
 ! D9    D(13,1,2,8)          -110.8161         estimate D2E/DX2                !
 ! D10   D(13,1,2,9)            69.1839         estimate D2E/DX2                !
 ! D11   D(13,1,2,15)          163.1108         estimate D2E/DX2                !
 ! D12   D(13,1,2,16)          -16.8892         estimate D2E/DX2                !
 ! D13   D(14,1,2,8)            69.184          estimate D2E/DX2                !
 ! D14   D(14,1,2,9)          -110.8161         estimate D2E/DX2                !
 ! D15   D(14,1,2,15)          -16.8892         estimate D2E/DX2                !
 ! D16   D(14,1,2,16)          163.1108         estimate D2E/DX2                !
 ! D17   D(2,1,4,22)           -90.9871         estimate D2E/DX2                !
 ! D18   D(3,1,4,22)           -37.1636         estimate D2E/DX2                !
 ! D19   D(6,1,4,22)           -99.1284         estimate D2E/DX2                !
 ! D20   D(7,1,4,22)            89.0129         estimate D2E/DX2                !
 ! D21   D(13,1,4,22)            2.3974         estimate D2E/DX2                !
 ! D22   D(14,1,4,22)          170.2929         estimate D2E/DX2                !
 ! D23   D(2,1,7,25)           -90.9873         estimate D2E/DX2                !
 ! D24   D(3,1,7,25)           -99.1286         estimate D2E/DX2                !
 ! D25   D(4,1,7,25)            89.0127         estimate D2E/DX2                !
 ! D26   D(6,1,7,25)           -37.1636         estimate D2E/DX2                !
 ! D27   D(13,1,7,25)          170.2927         estimate D2E/DX2                !
 ! D28   D(14,1,7,25)            2.3971         estimate D2E/DX2                !
 ! D29   D(2,1,13,17)          -53.9011         estimate D2E/DX2                !
 ! D30   D(2,1,13,21)          132.8683         estimate D2E/DX2                !
 ! D31   D(3,1,13,17)          -13.121          estimate D2E/DX2                !
 ! D32   D(3,1,13,21)          173.6484         estimate D2E/DX2                !
 ! D33   D(4,1,13,17)          173.288          estimate D2E/DX2                !
 ! D34   D(4,1,13,21)            0.0573         estimate D2E/DX2                !
 ! D35   D(6,1,13,17)          -95.7506         estimate D2E/DX2                !
 ! D36   D(6,1,13,21)           91.0187         estimate D2E/DX2                !
 ! D37   D(7,1,13,17)           79.5146         estimate D2E/DX2                !
 ! D38   D(7,1,13,21)          -93.716          estimate D2E/DX2                !
 ! D39   D(14,1,13,17)         126.0988         estimate D2E/DX2                !
 ! D40   D(14,1,13,21)         -47.1318         estimate D2E/DX2                !
 ! D41   D(2,1,14,23)          -53.901          estimate D2E/DX2                !
 ! D42   D(2,1,14,24)          132.8682         estimate D2E/DX2                !
 ! D43   D(3,1,14,23)          -95.7506         estimate D2E/DX2                !
 ! D44   D(3,1,14,24)           91.0186         estimate D2E/DX2                !
 ! D45   D(4,1,14,23)           79.5147         estimate D2E/DX2                !
 ! D46   D(4,1,14,24)          -93.7161         estimate D2E/DX2                !
 ! D47   D(6,1,14,23)          -13.1209         estimate D2E/DX2                !
 ! D48   D(6,1,14,24)          173.6483         estimate D2E/DX2                !
 ! D49   D(7,1,14,23)          173.288          estimate D2E/DX2                !
 ! D50   D(7,1,14,24)            0.0572         estimate D2E/DX2                !
 ! D51   D(13,1,14,23)         126.0991         estimate D2E/DX2                !
 ! D52   D(13,1,14,24)         -47.1316         estimate D2E/DX2                !
 ! D53   D(1,2,8,30)           -90.9873         estimate D2E/DX2                !
 ! D54   D(3,2,8,30)           -37.1636         estimate D2E/DX2                !
 ! D55   D(6,2,8,30)           -99.1286         estimate D2E/DX2                !
 ! D56   D(9,2,8,30)            89.0127         estimate D2E/DX2                !
 ! D57   D(15,2,8,30)            2.3971         estimate D2E/DX2                !
 ! D58   D(16,2,8,30)          170.2927         estimate D2E/DX2                !
 ! D59   D(1,2,9,31)           -90.9871         estimate D2E/DX2                !
 ! D60   D(3,2,9,31)           -99.1284         estimate D2E/DX2                !
 ! D61   D(6,2,9,31)           -37.1636         estimate D2E/DX2                !
 ! D62   D(8,2,9,31)            89.0129         estimate D2E/DX2                !
 ! D63   D(15,2,9,31)          170.2929         estimate D2E/DX2                !
 ! D64   D(16,2,9,31)            2.3974         estimate D2E/DX2                !
 ! D65   D(1,2,15,26)          -53.901          estimate D2E/DX2                !
 ! D66   D(1,2,15,27)          132.8682         estimate D2E/DX2                !
 ! D67   D(3,2,15,26)          -13.1209         estimate D2E/DX2                !
 ! D68   D(3,2,15,27)          173.6483         estimate D2E/DX2                !
 ! D69   D(6,2,15,26)          -95.7506         estimate D2E/DX2                !
 ! D70   D(6,2,15,27)           91.0186         estimate D2E/DX2                !
 ! D71   D(8,2,15,26)          173.288          estimate D2E/DX2                !
 ! D72   D(8,2,15,27)            0.0572         estimate D2E/DX2                !
 ! D73   D(9,2,15,26)           79.5147         estimate D2E/DX2                !
 ! D74   D(9,2,15,27)          -93.7161         estimate D2E/DX2                !
 ! D75   D(16,2,15,26)         126.0991         estimate D2E/DX2                !
 ! D76   D(16,2,15,27)         -47.1316         estimate D2E/DX2                !
 ! D77   D(1,2,16,28)          -53.9011         estimate D2E/DX2                !
 ! D78   D(1,2,16,29)          132.8683         estimate D2E/DX2                !
 ! D79   D(3,2,16,28)          -95.7506         estimate D2E/DX2                !
 ! D80   D(3,2,16,29)           91.0187         estimate D2E/DX2                !
 ! D81   D(6,2,16,28)          -13.121          estimate D2E/DX2                !
 ! D82   D(6,2,16,29)          173.6484         estimate D2E/DX2                !
 ! D83   D(8,2,16,28)           79.5146         estimate D2E/DX2                !
 ! D84   D(8,2,16,29)          -93.716          estimate D2E/DX2                !
 ! D85   D(9,2,16,28)          173.288          estimate D2E/DX2                !
 ! D86   D(9,2,16,29)            0.0573         estimate D2E/DX2                !
 ! D87   D(15,2,16,28)         126.0988         estimate D2E/DX2                !
 ! D88   D(15,2,16,29)         -47.1318         estimate D2E/DX2                !
 ! D89   D(1,4,22,5)           176.6046         estimate D2E/DX2                !
 ! D90   D(1,4,22,21)           -4.0288         estimate D2E/DX2                !
 ! D91   D(1,7,25,10)          176.6031         estimate D2E/DX2                !
 ! D92   D(1,7,25,24)           -4.0284         estimate D2E/DX2                !
 ! D93   D(2,8,30,11)          176.6031         estimate D2E/DX2                !
 ! D94   D(2,8,30,27)           -4.0284         estimate D2E/DX2                !
 ! D95   D(2,9,31,12)          176.6046         estimate D2E/DX2                !
 ! D96   D(2,9,31,29)           -4.0288         estimate D2E/DX2                !
 ! D97   D(1,13,17,18)        -174.6059         estimate D2E/DX2                !
 ! D98   D(1,13,17,41)           5.1288         estimate D2E/DX2                !
 ! D99   D(21,13,17,18)         -1.8937         estimate D2E/DX2                !
 ! D100  D(21,13,17,41)        177.841          estimate D2E/DX2                !
 ! D101  D(1,13,21,20)         176.0314         estimate D2E/DX2                !
 ! D102  D(1,13,21,22)          -2.101          estimate D2E/DX2                !
 ! D103  D(17,13,21,20)          2.4668         estimate D2E/DX2                !
 ! D104  D(17,13,21,22)       -175.6657         estimate D2E/DX2                !
 ! D105  D(1,14,23,32)        -174.6061         estimate D2E/DX2                !
 ! D106  D(1,14,23,45)           5.1287         estimate D2E/DX2                !
 ! D107  D(24,14,23,32)         -1.8937         estimate D2E/DX2                !
 ! D108  D(24,14,23,45)        177.8411         estimate D2E/DX2                !
 ! D109  D(1,14,24,25)          -2.1006         estimate D2E/DX2                !
 ! D110  D(1,14,24,33)         176.0316         estimate D2E/DX2                !
 ! D111  D(23,14,24,25)       -175.6654         estimate D2E/DX2                !
 ! D112  D(23,14,24,33)          2.4668         estimate D2E/DX2                !
 ! D113  D(2,15,26,34)        -174.6061         estimate D2E/DX2                !
 ! D114  D(2,15,26,46)           5.1287         estimate D2E/DX2                !
 ! D115  D(27,15,26,34)         -1.8937         estimate D2E/DX2                !
 ! D116  D(27,15,26,46)        177.8411         estimate D2E/DX2                !
 ! D117  D(2,15,27,30)          -2.1006         estimate D2E/DX2                !
 ! D118  D(2,15,27,35)         176.0316         estimate D2E/DX2                !
 ! D119  D(26,15,27,30)       -175.6654         estimate D2E/DX2                !
 ! D120  D(26,15,27,35)          2.4668         estimate D2E/DX2                !
 ! D121  D(2,16,28,36)        -174.6059         estimate D2E/DX2                !
 ! D122  D(2,16,28,47)           5.1288         estimate D2E/DX2                !
 ! D123  D(29,16,28,36)         -1.8937         estimate D2E/DX2                !
 ! D124  D(29,16,28,47)        177.841          estimate D2E/DX2                !
 ! D125  D(2,16,29,31)          -2.101          estimate D2E/DX2                !
 ! D126  D(2,16,29,37)         176.0314         estimate D2E/DX2                !
 ! D127  D(28,16,29,31)       -175.6657         estimate D2E/DX2                !
 ! D128  D(28,16,29,37)          2.4668         estimate D2E/DX2                !
 ! D129  D(13,17,18,19)          0.2347         estimate D2E/DX2                !
 ! D130  D(13,17,18,42)        179.7764         estimate D2E/DX2                !
 ! D131  D(41,17,18,19)       -179.4764         estimate D2E/DX2                !
 ! D132  D(41,17,18,42)          0.0653         estimate D2E/DX2                !
 ! D133  D(17,18,19,20)          0.8421         estimate D2E/DX2                !
 ! D134  D(17,18,19,43)        179.938          estimate D2E/DX2                !
 ! D135  D(42,18,19,20)       -178.6907         estimate D2E/DX2                !
 ! D136  D(42,18,19,43)          0.4052         estimate D2E/DX2                !
 ! D137  D(18,19,20,21)         -0.3154         estimate D2E/DX2                !
 ! D138  D(18,19,20,44)        178.6098         estimate D2E/DX2                !
 ! D139  D(43,19,20,21)       -179.4095         estimate D2E/DX2                !
 ! D140  D(43,19,20,44)         -0.4843         estimate D2E/DX2                !
 ! D141  D(19,20,21,13)         -1.3246         estimate D2E/DX2                !
 ! D142  D(19,20,21,22)        176.6354         estimate D2E/DX2                !
 ! D143  D(44,20,21,13)        179.6902         estimate D2E/DX2                !
 ! D144  D(44,20,21,22)         -2.3498         estimate D2E/DX2                !
 ! D145  D(13,21,22,4)           3.9768         estimate D2E/DX2                !
 ! D146  D(13,21,22,5)        -176.6071         estimate D2E/DX2                !
 ! D147  D(20,21,22,4)        -174.1074         estimate D2E/DX2                !
 ! D148  D(20,21,22,5)           5.3087         estimate D2E/DX2                !
 ! D149  D(14,23,32,38)          0.2347         estimate D2E/DX2                !
 ! D150  D(14,23,32,48)        179.7764         estimate D2E/DX2                !
 ! D151  D(45,23,32,38)       -179.4764         estimate D2E/DX2                !
 ! D152  D(45,23,32,48)          0.0652         estimate D2E/DX2                !
 ! D153  D(14,24,25,7)           3.9762         estimate D2E/DX2                !
 ! D154  D(14,24,25,10)       -176.6059         estimate D2E/DX2                !
 ! D155  D(33,24,25,7)        -174.1077         estimate D2E/DX2                !
 ! D156  D(33,24,25,10)          5.3102         estimate D2E/DX2                !
 ! D157  D(14,24,33,38)         -1.3246         estimate D2E/DX2                !
 ! D158  D(14,24,33,49)        179.6902         estimate D2E/DX2                !
 ! D159  D(25,24,33,38)        176.6352         estimate D2E/DX2                !
 ! D160  D(25,24,33,49)         -2.35           estimate D2E/DX2                !
 ! D161  D(15,26,34,39)          0.2347         estimate D2E/DX2                !
 ! D162  D(15,26,34,50)        179.7764         estimate D2E/DX2                !
 ! D163  D(46,26,34,39)       -179.4764         estimate D2E/DX2                !
 ! D164  D(46,26,34,50)          0.0652         estimate D2E/DX2                !
 ! D165  D(15,27,30,8)           3.9762         estimate D2E/DX2                !
 ! D166  D(15,27,30,11)       -176.6059         estimate D2E/DX2                !
 ! D167  D(35,27,30,8)        -174.1077         estimate D2E/DX2                !
 ! D168  D(35,27,30,11)          5.3102         estimate D2E/DX2                !
 ! D169  D(15,27,35,39)         -1.3246         estimate D2E/DX2                !
 ! D170  D(15,27,35,51)        179.6902         estimate D2E/DX2                !
 ! D171  D(30,27,35,39)        176.6352         estimate D2E/DX2                !
 ! D172  D(30,27,35,51)         -2.35           estimate D2E/DX2                !
 ! D173  D(16,28,36,40)          0.2347         estimate D2E/DX2                !
 ! D174  D(16,28,36,52)        179.7764         estimate D2E/DX2                !
 ! D175  D(47,28,36,40)       -179.4764         estimate D2E/DX2                !
 ! D176  D(47,28,36,52)          0.0653         estimate D2E/DX2                !
 ! D177  D(16,29,31,9)           3.9768         estimate D2E/DX2                !
 ! D178  D(16,29,31,12)       -176.6071         estimate D2E/DX2                !
 ! D179  D(37,29,31,9)        -174.1074         estimate D2E/DX2                !
 ! D180  D(37,29,31,12)          5.3087         estimate D2E/DX2                !
 ! D181  D(16,29,37,40)         -1.3246         estimate D2E/DX2                !
 ! D182  D(16,29,37,53)        179.6902         estimate D2E/DX2                !
 ! D183  D(31,29,37,40)        176.6354         estimate D2E/DX2                !
 ! D184  D(31,29,37,53)         -2.3498         estimate D2E/DX2                !
 ! D185  D(23,32,38,33)          0.8421         estimate D2E/DX2                !
 ! D186  D(23,32,38,54)        179.938          estimate D2E/DX2                !
 ! D187  D(48,32,38,33)       -178.6907         estimate D2E/DX2                !
 ! D188  D(48,32,38,54)          0.4052         estimate D2E/DX2                !
 ! D189  D(24,33,38,32)         -0.3154         estimate D2E/DX2                !
 ! D190  D(24,33,38,54)       -179.4094         estimate D2E/DX2                !
 ! D191  D(49,33,38,32)        178.6097         estimate D2E/DX2                !
 ! D192  D(49,33,38,54)         -0.4844         estimate D2E/DX2                !
 ! D193  D(26,34,39,35)          0.8421         estimate D2E/DX2                !
 ! D194  D(26,34,39,55)        179.938          estimate D2E/DX2                !
 ! D195  D(50,34,39,35)       -178.6907         estimate D2E/DX2                !
 ! D196  D(50,34,39,55)          0.4052         estimate D2E/DX2                !
 ! D197  D(27,35,39,34)         -0.3154         estimate D2E/DX2                !
 ! D198  D(27,35,39,55)       -179.4094         estimate D2E/DX2                !
 ! D199  D(51,35,39,34)        178.6097         estimate D2E/DX2                !
 ! D200  D(51,35,39,55)         -0.4844         estimate D2E/DX2                !
 ! D201  D(28,36,40,37)          0.8421         estimate D2E/DX2                !
 ! D202  D(28,36,40,56)        179.938          estimate D2E/DX2                !
 ! D203  D(52,36,40,37)       -178.6907         estimate D2E/DX2                !
 ! D204  D(52,36,40,56)          0.4052         estimate D2E/DX2                !
 ! D205  D(29,37,40,36)         -0.3154         estimate D2E/DX2                !
 ! D206  D(29,37,40,56)       -179.4095         estimate D2E/DX2                !
 ! D207  D(53,37,40,36)        178.6098         estimate D2E/DX2                !
 ! D208  D(53,37,40,56)         -0.4843         estimate D2E/DX2                !
 --------------------------------------------------------------------------------
 Trust Radius=3.00D-01 FncErr=1.00D-07 GrdErr=1.00D-06
 Number of steps in this run= 336 maximum allowed number of steps= 336.
 GradGradGradGradGradGradGradGradGradGradGradGradGradGradGradGradGradGrad

 Stoichiometry    C24H16Mn2N4O10(7)
 Framework group  C2[X(C24H16Mn2N4O10)]
 Deg. of freedom    82
 Full point group                 C2      NOp   2
 Largest Abelian subgroup         C2      NOp   2
 Largest concise Abelian subgroup C2      NOp   2
                         Standard orientation:                         
 ---------------------------------------------------------------------
 Center     Atomic      Atomic             Coordinates (Angstroms)
 Number     Number       Type             X           Y           Z
 ---------------------------------------------------------------------
      1         25           0       -1.357267    0.000002   -0.000000
      2         25           0        1.357267   -0.000002   -0.000000
      3          8           0        0.000002    1.193234    0.000000
      4          8           0       -2.683328   -1.372184   -0.300979
      5          8           0       -3.903425   -2.396610   -1.895904
      6          8           0       -0.000002   -1.193234    0.000000
      7          8           0       -2.683325    1.372191    0.300978
      8          8           0        2.683325   -1.372191    0.300978
      9          8           0        2.683328    1.372184   -0.300979
     10          8           0       -3.903405    2.396633    1.895905
     11          8           0        3.903405   -2.396633    1.895905
     12          8           0        3.903425    2.396610   -1.895904
     13          7           0       -1.646571    0.291441   -1.963043
     14          7           0       -1.646572   -0.291435    1.963042
     15          7           0        1.646572    0.291435    1.963042
     16          7           0        1.646571   -0.291441   -1.963043
     17          6           0       -1.125068    1.286241   -2.685326
     18          6           0       -1.483837    1.452879   -4.016274
     19          6           0       -2.399786    0.570815   -4.587954
     20          6           0       -2.947316   -0.444148   -3.811365
     21          6           0       -2.551495   -0.543983   -2.486683
     22          6           0       -3.120530   -1.550852   -1.513903
     23          6           0       -1.125070   -1.286235    2.685327
     24          6           0       -2.551491    0.543994    2.486683
     25          6           0       -3.120530    1.550858    1.513900
     26          6           0        1.125070    1.286235    2.685327
     27          6           0        2.551491   -0.543994    2.486683
     28          6           0        1.125068   -1.286241   -2.685326
     29          6           0        2.551495    0.543983   -2.486683
     30          6           0        3.120530   -1.550858    1.513900
     31          6           0        3.120530    1.550852   -1.513903
     32          6           0       -1.483836   -1.452869    4.016276
     33          6           0       -2.947310    0.444163    3.811365
     34          6           0        1.483836    1.452869    4.016276
     35          6           0        2.947310   -0.444163    3.811365
     36          6           0        1.483837   -1.452879   -4.016274
     37          6           0        2.947316    0.444148   -3.811365
     38          6           0       -2.399781   -0.570800    4.587956
     39          6           0        2.399781    0.570800    4.587956
     40          6           0        2.399786   -0.570815   -4.587954
     41          1           0       -0.427156    1.930146   -2.159159
     42          1           0       -1.053571    2.268209   -4.587267
     43          1           0       -2.693156    0.686118   -5.627322
     44          1           0       -3.680707   -1.153065   -4.180184
     45          1           0       -0.427161   -1.930143    2.159160
     46          1           0        0.427161    1.930143    2.159160
     47          1           0        0.427156   -1.930146   -2.159159
     48          1           0       -1.053572   -2.268198    4.587270
     49          1           0       -3.680699    1.153082    4.180185
     50          1           0        1.053572    2.268198    4.587270
     51          1           0        3.680699   -1.153082    4.180185
     52          1           0        1.053571   -2.268209   -4.587267
     53          1           0        3.680707    1.153065   -4.180184
     54          1           0       -2.693150   -0.686100    5.627325
     55          1           0        2.693150    0.686100    5.627325
     56          1           0        2.693156   -0.686118   -5.627322
 ---------------------------------------------------------------------
 Rotational constants (GHZ):      0.1139438      0.1030343      0.0673232
 General basis read from cards:  (5D, 7F)
 ======================================================================================================
                                       Pseudopotential Parameters
 ======================================================================================================
  Center     Atomic      Valence      Angular      Power
  Number     Number     Electrons     Momentum     of R      Exponent        Coefficient   SO-Coeffient
 ======================================================================================================
    1         25           15
                                      F and up 
                                                     2        1.0000000        0.00000000    0.00000000
                                      S - F
                                                     2       18.5200000      226.43090200    0.00000000
                                                     2        8.3730000       30.35907200    0.00000000
                                      P - F
                                                     2       18.9200000      142.15470500    0.00000000
                                                     2        8.0170000       21.53650900    0.00000000
                                      D - F
                                                     2       22.7200000      -22.56811900    0.00000000
                                                     2        7.6400000       -1.20581000    0.00000000
    2         25           15
                                      F and up 
                                                     2        1.0000000        0.00000000    0.00000000
                                      S - F
                                                     2       18.5200000      226.43090200    0.00000000
                                                     2        8.3730000       30.35907200    0.00000000
                                      P - F
                                                     2       18.9200000      142.15470500    0.00000000
                                                     2        8.0170000       21.53650900    0.00000000
                                      D - F
                                                     2       22.7200000      -22.56811900    0.00000000
                                                     2        7.6400000       -1.20581000    0.00000000
    3          8
                                   No pseudopotential on this center.
    4          8
                                   No pseudopotential on this center.
    5          8
                                   No pseudopotential on this center.
    6          8
                                   No pseudopotential on this center.
    7          8
                                   No pseudopotential on this center.
    8          8
                                   No pseudopotential on this center.
    9          8
                                   No pseudopotential on this center.
   10          8
                                   No pseudopotential on this center.
   11          8
                                   No pseudopotential on this center.
   12          8
                                   No pseudopotential on this center.
   13          7
                                   No pseudopotential on this center.
   14          7
                                   No pseudopotential on this center.
   15          7
                                   No pseudopotential on this center.
   16          7
                                   No pseudopotential on this center.
   17          6
                                   No pseudopotential on this center.
   18          6
                                   No pseudopotential on this center.
   19          6
                                   No pseudopotential on this center.
   20          6
                                   No pseudopotential on this center.
   21          6
                                   No pseudopotential on this center.
   22          6
                                   No pseudopotential on this center.
   23          6
                                   No pseudopotential on this center.
   24          6
                                   No pseudopotential on this center.
   25          6
                                   No pseudopotential on this center.
   26          6
                                   No pseudopotential on this center.
   27          6
                                   No pseudopotential on this center.
   28          6
                                   No pseudopotential on this center.
   29          6
                                   No pseudopotential on this center.
   30          6
                                   No pseudopotential on this center.
   31          6
                                   No pseudopotential on this center.
   32          6
                                   No pseudopotential on this center.
   33          6
                                   No pseudopotential on this center.
   34          6
                                   No pseudopotential on this center.
   35          6
                                   No pseudopotential on this center.
   36          6
                                   No pseudopotential on this center.
   37          6
                                   No pseudopotential on this center.
   38          6
                                   No pseudopotential on this center.
   39          6
                                   No pseudopotential on this center.
   40          6
                                   No pseudopotential on this center.
   41          1
                                   No pseudopotential on this center.
   42          1
                                   No pseudopotential on this center.
   43          1
                                   No pseudopotential on this center.
   44          1
                                   No pseudopotential on this center.
   45          1
                                   No pseudopotential on this center.
   46          1
                                   No pseudopotential on this center.
   47          1
                                   No pseudopotential on this center.
   48          1
                                   No pseudopotential on this center.
   49          1
                                   No pseudopotential on this center.
   50          1
                                   No pseudopotential on this center.
   51          1
                                   No pseudopotential on this center.
   52          1
                                   No pseudopotential on this center.
   53          1
                                   No pseudopotential on this center.
   54          1
                                   No pseudopotential on this center.
   55          1
                                   No pseudopotential on this center.
   56          1
                                   No pseudopotential on this center.
 ======================================================================================================
 There are   349 symmetry adapted basis functions of A   symmetry.
 There are   349 symmetry adapted basis functions of B   symmetry.
 Integral buffers will be    131072 words long.
 Raffenetti 2 integral format.
 Two-electron integral symmetry is turned on.
   698 basis functions,  1326 primitive gaussians,   748 cartesian basis functions
   152 alpha electrons      146 beta electrons
       nuclear repulsion energy      5586.6817824787 Hartrees.
 NAtoms=   56 NActive=   56 NUniq=   28 SFac= 3.00D+00 NAtFMM=   80 NAOKFM=F Big=F
 One-electron integrals computed using PRISM.
   2 Symmetry operations used in ECPInt.
 ECPInt:  NShTT=   26565 NPrTT=  147907 LenC2=   21062 LenP2D=   62898.
 LDataN:  DoStor=T MaxTD1= 6 Len=  172
 NBasis=   698 RedAO= T  NBF=   349   349
 NBsUse=   698 1.00D-06 NBFU=   349   349
 Initial guess read from the checkpoint file:  ferromagnetic.chk
 B after Tr=     0.000000   -0.000000    0.000000
         Rot=    1.000000    0.000000    0.000000    0.000000 Ang=   0.00 deg.
 Initial guess orbital symmetries:
 Alpha Orbitals:
       Occupied  (B) (A) (B) (A) (A) (B) (B) (A) (B) (A) (A) (B)
                 (A) (B) (A) (B) (B) (A) (A) (B) (B) (A) (B) (A)
                 (B) (A) (A) (B) (A) (B) (B) (B) (A) (A) (B) (A)
                 (B) (A) (A) (B) (A) (B) (A) (B) (A) (B) (A) (B)
                 (A) (B) (A) (A) (B) (B) (A) (B) (A) (B) (A) (B)
                 (A) (A) (B) (B) (B) (A) (A) (B) (B) (A) (A) (B)
                 (B) (A) (B) (A) (A) (B) (A) (B) (B) (A) (A) (B)
                 (B) (A) (A) (B) (B) (A) (A) (B) (A) (A) (B) (B)
                 (A) (B) (A) (A) (B) (A) (B) (A) (B) (B) (A) (A)
                 (B) (A) (B) (B) (A) (A) (B) (B) (A) (A) (B) (A)
                 (A) (B) (B) (B) (A) (A) (B) (B) (B) (A) (A) (B)
                 (A) (B) (A) (A) (B) (B) (A) (A) (B) (B) (B) (B)
                 (A) (A) (B) (A) (A) (B) (A) (B)
       Virtual   (A) (B) (A) (A) (B) (B) (B) (A) (B) (A) (B) (A)
                 (A) (B) (A) (A) (B) (B) (B) (A) (B) (B) (A) (A)
                 (B) (B) (A) (A) (A) (B) (A) (A) (B) (B) (A) (B)
                 (A) (B) (B) (A) (B) (A) (A) (A) (B) (B) (A) (B)
                 (A) (A) (B) (A) (B) (B) (A) (B) (B) (A) (A) (B)
                 (A) (A) (B) (B) (A) (B) (B) (B) (A) (A) (A) (A)
                 (A) (B) (B) (B) (A) (B) (A) (A) (B) (B) (A) (B)
                 (A) (A) (B) (B) (A) (A) (B) (A) (B) (A) (B) (A)
                 (B) (A) (B) (A) (A) (B) (B) (B) (A) (A) (B) (B)
                 (A) (A) (B) (B) (A) (A) (A) (B) (B) (A) (A) (B)
                 (A) (B) (B) (A) (A) (B) (B) (A) (A) (B) (B) (B)
                 (B) (A) (A) (B) (A) (A) (B) (B) (B) (A) (B) (A)
                 (A) (B) (A) (A) (B) (A) (B) (A) (B) (A) (B) (B)
                 (A) (A) (B) (A) (B) (B) (A) (A) (B) (B) (A) (A)
                 (B) (B) (A) (B) (A) (A) (B) (B) (A) (B) (A) (A)
                 (B) (A) (A) (B) (B) (B) (A) (B) (A) (A) (B) (A)
                 (A) (B) (B) (A) (B) (A) (A) (B) (A) (B) (B) (A)
                 (B) (A) (B) (A) (B) (B) (A) (B) (B) (A) (A) (B)
                 (B) (A) (A) (A) (B) (B) (B) (A) (A) (B) (A) (B)
                 (A) (B) (B) (A) (A) (B) (A) (B) (A) (B) (B) (A)
                 (A) (A) (B) (B) (B) (B) (A) (A) (B) (A) (A) (B)
                 (A) (A) (B) (B) (A) (A) (B) (A) (B) (B) (A) (B)
                 (A) (A) (B) (A) (A) (B) (B) (B) (A) (B) (A) (B)
                 (B) (A) (B) (A) (A) (A) (B) (A) (B) (B) (A) (A)
                 (B) (A) (B) (A) (B) (B) (A) (B) (B) (A) (A) (B)
                 (A) (B) (A) (A) (B) (A) (A) (B) (A) (B) (B) (A)
                 (B) (B) (A) (A) (B) (B) (A) (B) (A) (A) (B) (A)
                 (B) (A) (B) (A) (B) (B) (A) (B) (A) (B) (B) (B)
                 (A) (A) (B) (A) (B) (A) (A) (B) (B) (B) (B) (A)
                 (A) (A) (B) (A) (A) (B) (B) (A) (B) (A) (A) (B)
                 (B) (A) (B) (A) (A) (B) (A) (B) (B) (B) (A) (A)
                 (A) (B) (A) (B) (A) (B) (B) (A) (A) (A) (B) (B)
                 (B) (A) (B) (A) (B) (A) (B) (A) (A) (B) (A) (A)
                 (B) (B) (A) (A) (B) (B) (A) (A) (B) (B) (B) (A)
                 (B) (B) (A) (A) (B) (A) (B) (A) (A) (A) (B) (B)
                 (A) (B) (A) (A) (B) (B) (A) (A) (B) (B) (A) (B)
                 (B) (B) (A) (A) (A) (B) (B) (A) (A) (B) (B) (B)
                 (A) (B) (A) (A) (B) (A) (B) (A) (A) (B) (A) (B)
                 (A) (B) (B) (A) (A) (B) (A) (B) (A) (A) (B) (A)
                 (B) (B) (B) (B) (A) (A) (B) (B) (A) (A) (A) (B)
                 (A) (B) (B) (A) (B) (A) (B) (A) (A) (B) (A) (A)
                 (B) (B) (A) (A) (B) (B) (A) (B) (B) (A) (A) (B)
                 (A) (A) (B) (B) (B) (A) (A) (B) (A) (A) (B) (B)
                 (A) (B) (B) (A) (A) (B) (B) (A) (A) (B) (A) (B)
                 (B) (A) (B) (A) (B) (A) (A) (B) (A) (B) (A) (B)
                 (A) (B) (B) (A) (A) (B)
 Beta  Orbitals:
       Occupied  (B) (A) (B) (A) (A) (B) (B) (A) (B) (A) (A) (B)
                 (A) (B) (A) (B) (B) (A) (A) (B) (B) (A) (B) (A)
                 (B) (A) (A) (B) (A) (B) (B) (B) (A) (A) (B) (A)
                 (B) (A) (A) (B) (A) (A) (B) (B) (B) (A) (A) (B)
                 (A) (B) (A) (A) (B) (B) (A) (B) (A) (B) (A) (B)
                 (A) (A) (B) (B) (A) (B) (A) (B) (B) (A) (A) (B)
                 (B) (A) (B) (A) (A) (B) (A) (B) (B) (A) (A) (B)
                 (B) (A) (A) (B) (B) (A) (A) (B) (A) (B) (A) (B)
                 (A) (A) (B) (A) (B) (A) (B) (B) (B) (A) (A) (B)
                 (A) (A) (B) (A) (B) (A) (B) (B) (A) (A) (B) (A)
                 (B) (A) (B) (A) (A) (B) (B) (B) (A) (B) (A) (A)
                 (A) (B) (B) (A) (B) (A) (B) (B) (B) (A) (A) (A)
                 (B) (B)
       Virtual   (A) (B) (A) (B) (A) (B) (B) (A) (A) (B) (B) (A)
                 (B) (A) (A) (B) (B) (A) (A) (B) (A) (B) (A) (B)
                 (B) (A) (B) (B) (A) (A) (B) (B) (A) (A) (A) (B)
                 (A) (A) (B) (B) (A) (B) (A) (B) (B) (A) (B) (A)
                 (A) (A) (B) (B) (B) (A) (A) (B) (A) (A) (B) (B)
                 (A) (B) (B) (A) (A) (B) (A) (A) (B) (A) (B) (B)
                 (B) (A) (B) (A) (A) (A) (B) (A) (B) (B) (B) (A)
                 (A) (A) (B) (A) (B) (B) (A) (A) (B) (B) (A) (A)
                 (B) (A) (B) (A) (A) (B) (B) (A) (B) (A) (A) (B)
                 (B) (B) (A) (A) (B) (A) (B) (A) (B) (B) (A) (A)
                 (A) (B) (B) (A) (A) (B) (B) (A) (B) (A) (A) (B)
                 (B) (B) (A) (B) (A) (B) (A) (A) (B) (B) (A) (A)
                 (B) (B) (B) (A) (A) (B) (B) (A) (A) (A) (B) (B)
                 (A) (A) (B) (B) (A) (A) (B) (B) (A) (A) (B) (B)
                 (A) (B) (B) (A) (A) (B) (A) (B) (A) (B) (A) (A)
                 (B) (B) (A) (A) (A) (B) (A) (B) (A) (B) (B) (B)
                 (A) (B) (A) (A) (B) (A) (A) (B) (B) (A) (B) (A)
                 (A) (B) (A) (B) (B) (A) (B) (A) (B) (A) (B) (B)
                 (A) (B) (B) (A) (A) (B) (B) (A) (A) (B) (A) (B)
                 (B) (A) (A) (B) (A) (B) (A) (B) (B) (A) (A) (B)
                 (A) (B) (B) (A) (B) (A) (A) (A) (B) (B) (A) (A)
                 (B) (B) (A) (A) (B) (B) (A) (B) (B) (A) (A) (A)
                 (B) (A) (B) (B) (A) (A) (B) (A) (B) (A) (A) (B)
                 (B) (B) (A) (B) (A) (B) (B) (A) (B) (A) (A) (A)
                 (B) (A) (B) (B) (A) (A) (B) (B) (A) (A) (B) (B)
                 (A) (B) (B) (A) (A) (B) (A) (B) (A) (B) (A) (A)
                 (A) (A) (B) (B) (B) (A) (B) (B) (A) (A) (B) (B)
                 (A) (B) (A) (A) (B) (A) (B) (A) (B) (A) (B) (B)
                 (A) (B) (A) (B) (B) (B) (A) (A) (A) (B) (B) (A)
                 (A) (B) (B) (B) (B) (A) (A) (A) (B) (A) (A) (B)
                 (A) (B) (B) (A) (A) (B) (A) (B) (B) (A) (A) (B)
                 (A) (B) (B) (B) (A) (A) (A) (B) (A) (A) (B) (B)
                 (B) (A) (A) (A) (B) (B) (B) (A) (B) (A) (B) (A)
                 (B) (A) (A) (B) (A) (A) (B) (A) (B) (A) (B) (B)
                 (A) (A) (B) (B) (B) (A) (B) (B) (A) (B) (A) (A)
                 (B) (A) (A) (A) (B) (B) (B) (A) (A) (A) (B) (B)
                 (A) (A) (B) (B) (A) (B) (B) (B) (A) (A) (A) (B)
                 (B) (A) (A) (B) (B) (B) (A) (B) (A) (A) (A) (B)
                 (A) (B) (B) (A) (A) (A) (B) (B) (B) (A) (B) (A)
                 (B) (A) (A) (A) (B) (B) (A) (B) (B) (A) (B) (A)
                 (B) (B) (A) (A) (A) (B) (A) (B) (B) (A) (B) (A)
                 (B) (A) (B) (A) (A) (A) (B) (B) (A) (A) (B) (B)
                 (A) (B) (B) (A) (A) (B) (A) (A) (B) (B) (B) (A)
                 (A) (B) (A) (A) (B) (B) (A) (B) (B) (A) (A) (B)
                 (B) (A) (B) (A) (A) (B) (A) (B) (B) (A) (B) (A)
                 (A) (B) (A) (B) (A) (B) (A) (B) (B) (A) (A) (B)
 Initial guess <Sx>= 0.0000 <Sy>= 0.0000 <Sz>= 3.0000 <S**2>=12.1591 S= 3.0227
 Requested convergence on RMS density matrix=1.00D-08 within 128 cycles.
 Requested convergence on MAX density matrix=1.00D-06.
 Requested convergence on             energy=1.00D-06.
 No special actions if energy rises.
 SCF Done:  E(UPBE1PBE) =  -2102.25543845     A.U. after    1 cycles
             Convg  =    0.3239D-08             -V/T =  2.0538
 <Sx>= 0.0000 <Sy>= 0.0000 <Sz>= 3.0000 <S**2>=12.1591 S= 3.0227
 <L.S>=  0.00000000000    
 Annihilation of the first spin contaminant:
 S**2 before annihilation    12.1591,   after    12.0066
 DiagDN has N=   698 LTot=  2126 but NE2=     3 cannot use DSYEVD.

 **********************************************************************

            Population analysis using the SCF density.

 **********************************************************************

 Orbital symmetries:
 Alpha Orbitals:
       Occupied  (B) (A) (B) (A) (A) (B) (B) (A) (B) (A) (A) (B)
                 (A) (B) (A) (B) (B) (A) (A) (B) (B) (A) (B) (A)
                 (B) (A) (A) (B) (A) (B) (B) (B) (A) (A) (B) (A)
                 (B) (A) (A) (B) (A) (B) (A) (B) (A) (B) (A) (B)
                 (A) (B) (A) (A) (B) (B) (A) (B) (A) (B) (A) (B)
                 (A) (A) (B) (B) (B) (A) (A) (B) (B) (A) (A) (B)
                 (B) (A) (B) (A) (A) (B) (A) (B) (B) (A) (A) (B)
                 (B) (A) (A) (B) (B) (A) (A) (B) (A) (A) (B) (B)
                 (A) (B) (A) (A) (B) (A) (B) (A) (B) (B) (A) (A)
                 (B) (A) (B) (B) (A) (A) (B) (B) (A) (A) (B) (A)
                 (A) (B) (B) (B) (A) (A) (B) (B) (B) (A) (A) (B)
                 (A) (B) (A) (A) (B) (B) (A) (A) (B) (B) (B) (B)
                 (A) (A) (B) (A) (A) (B) (A) (B)
       Virtual   (A) (B) (A) (A) (B) (B) (B) (A) (B) (A) (B) (A)
                 (A) (B) (A) (A) (B) (B) (B) (A) (B) (B) (A) (A)
                 (B) (B) (A) (A) (A) (B) (A) (A) (B) (B) (A) (B)
                 (A) (B) (B) (A) (B) (A) (A) (A) (B) (B) (A) (B)
                 (A) (A) (B) (A) (B) (B) (A) (B) (B) (A) (A) (B)
                 (A) (A) (B) (B) (A) (B) (B) (B) (A) (A) (A) (A)
                 (A) (B) (B) (B) (A) (B) (A) (A) (B) (B) (A) (B)
                 (A) (A) (B) (B) (A) (A) (B) (A) (B) (A) (B) (A)
                 (B) (A) (B) (A) (A) (B) (B) (B) (A) (A) (B) (B)
                 (A) (A) (B) (B) (A) (A) (A) (B) (B) (A) (A) (B)
                 (A) (B) (B) (A) (A) (B) (B) (A) (A) (B) (B) (B)
                 (B) (A) (A) (B) (A) (A) (B) (B) (B) (A) (B) (A)
                 (A) (B) (A) (A) (B) (A) (B) (A) (B) (A) (B) (B)
                 (A) (A) (B) (A) (B) (B) (A) (A) (B) (B) (A) (A)
                 (B) (B) (A) (B) (A) (A) (B) (B) (A) (B) (A) (A)
                 (B) (A) (A) (B) (B) (B) (A) (B) (A) (A) (B) (A)
                 (A) (B) (B) (A) (B) (A) (A) (B) (A) (B) (B) (A)
                 (B) (A) (B) (A) (B) (B) (A) (B) (B) (A) (A) (B)
                 (B) (A) (A) (A) (B) (B) (B) (A) (A) (B) (A) (B)
                 (A) (B) (B) (A) (A) (B) (A) (B) (A) (B) (B) (A)
                 (A) (A) (B) (B) (B) (B) (A) (A) (B) (A) (A) (B)
                 (A) (A) (B) (B) (A) (A) (B) (A) (B) (B) (A) (B)
                 (A) (A) (B) (A) (A) (B) (B) (B) (A) (B) (A) (B)
                 (B) (A) (B) (A) (A) (A) (B) (A) (B) (B) (A) (A)
                 (B) (A) (B) (A) (B) (B) (A) (B) (B) (A) (A) (B)
                 (A) (B) (A) (A) (B) (A) (A) (B) (A) (B) (B) (A)
                 (B) (B) (A) (A) (B) (B) (A) (B) (A) (A) (B) (A)
                 (B) (A) (B) (A) (B) (B) (A) (B) (A) (B) (B) (B)
                 (A) (A) (B) (A) (B) (A) (A) (B) (B) (B) (B) (A)
                 (A) (A) (B) (A) (A) (B) (B) (A) (B) (A) (A) (B)
                 (B) (A) (B) (A) (A) (B) (A) (B) (B) (B) (A) (A)
                 (A) (B) (A) (B) (A) (B) (B) (A) (A) (A) (B) (B)
                 (B) (A) (B) (A) (B) (A) (B) (A) (A) (B) (A) (A)
                 (B) (B) (A) (A) (B) (B) (A) (A) (B) (B) (B) (A)
                 (B) (B) (A) (A) (B) (A) (B) (A) (A) (A) (B) (B)
                 (A) (B) (A) (A) (B) (B) (A) (A) (B) (B) (A) (B)
                 (B) (B) (A) (A) (A) (B) (B) (A) (A) (B) (B) (B)
                 (A) (B) (A) (A) (B) (A) (B) (A) (A) (B) (A) (B)
                 (A) (B) (B) (A) (A) (B) (A) (B) (A) (A) (B) (A)
                 (B) (B) (B) (B) (A) (A) (B) (B) (A) (A) (A) (B)
                 (A) (B) (B) (A) (B) (A) (B) (A) (A) (B) (A) (A)
                 (B) (B) (A) (A) (B) (B) (A) (B) (B) (A) (A) (B)
                 (A) (A) (B) (B) (B) (A) (A) (B) (A) (A) (B) (B)
                 (A) (B) (B) (A) (A) (B) (B) (A) (A) (B) (A) (B)
                 (B) (A) (B) (A) (B) (A) (A) (B) (A) (B) (A) (B)
                 (A) (B) (B) (A) (A) (B)
 Beta  Orbitals:
       Occupied  (B) (A) (B) (A) (A) (B) (B) (A) (B) (A) (A) (B)
                 (A) (B) (A) (B) (B) (A) (A) (B) (B) (A) (B) (A)
                 (B) (A) (A) (B) (A) (B) (B) (B) (A) (A) (B) (A)
                 (B) (A) (A) (B) (A) (A) (B) (B) (B) (A) (A) (B)
                 (A) (B) (A) (A) (B) (B) (A) (B) (A) (B) (A) (B)
                 (A) (A) (B) (B) (A) (B) (A) (B) (B) (A) (A) (B)
                 (B) (A) (B) (A) (A) (B) (A) (B) (B) (A) (A) (B)
                 (B) (A) (A) (B) (B) (A) (A) (B) (A) (B) (A) (B)
                 (A) (A) (B) (A) (B) (A) (B) (B) (B) (A) (A) (B)
                 (A) (A) (B) (A) (B) (A) (B) (B) (A) (A) (B) (A)
                 (B) (A) (B) (A) (A) (B) (B) (B) (A) (B) (A) (A)
                 (A) (B) (B) (A) (B) (A) (B) (B) (B) (A) (A) (A)
                 (B) (B)
       Virtual   (A) (B) (A) (B) (A) (B) (B) (A) (A) (B) (B) (A)
                 (B) (A) (A) (B) (B) (A) (A) (B) (A) (B) (A) (B)
                 (B) (A) (B) (B) (A) (A) (B) (B) (A) (A) (A) (B)
                 (A) (A) (B) (B) (A) (B) (A) (B) (B) (A) (B) (A)
                 (A) (A) (B) (B) (B) (A) (A) (B) (A) (A) (B) (B)
                 (A) (B) (B) (A) (A) (B) (A) (A) (B) (A) (B) (B)
                 (B) (A) (B) (A) (A) (A) (B) (A) (B) (B) (B) (A)
                 (A) (A) (B) (A) (B) (B) (A) (A) (B) (B) (A) (A)
                 (B) (A) (B) (A) (A) (B) (B) (A) (B) (A) (A) (B)
                 (B) (B) (A) (A) (B) (A) (B) (A) (B) (B) (A) (A)
                 (A) (B) (B) (A) (A) (B) (B) (A) (B) (A) (A) (B)
                 (B) (B) (A) (B) (A) (B) (A) (A) (B) (B) (A) (A)
                 (B) (B) (B) (A) (A) (B) (B) (A) (A) (A) (B) (B)
                 (A) (A) (B) (B) (A) (A) (B) (B) (A) (A) (B) (B)
                 (A) (B) (B) (A) (A) (B) (A) (B) (A) (B) (A) (A)
                 (B) (B) (A) (A) (A) (B) (A) (B) (A) (B) (B) (B)
                 (A) (B) (A) (A) (B) (A) (A) (B) (B) (A) (B) (A)
                 (A) (B) (A) (B) (B) (A) (B) (A) (B) (A) (B) (B)
                 (A) (B) (B) (A) (A) (B) (B) (A) (A) (B) (A) (B)
                 (B) (A) (A) (B) (A) (B) (A) (B) (B) (A) (A) (B)
                 (A) (B) (B) (A) (B) (A) (A) (A) (B) (B) (A) (A)
                 (B) (B) (A) (A) (B) (B) (A) (B) (B) (A) (A) (A)
                 (B) (A) (B) (B) (A) (A) (B) (A) (B) (A) (A) (B)
                 (B) (B) (A) (B) (A) (B) (B) (A) (B) (A) (A) (A)
                 (B) (A) (B) (B) (A) (A) (B) (B) (A) (A) (B) (B)
                 (A) (B) (B) (A) (A) (B) (A) (B) (A) (B) (A) (A)
                 (A) (A) (B) (B) (B) (A) (B) (B) (A) (A) (B) (B)
                 (A) (B) (A) (A) (B) (A) (B) (A) (B) (A) (B) (B)
                 (A) (B) (A) (B) (B) (B) (A) (A) (A) (B) (B) (A)
                 (A) (B) (B) (B) (B) (A) (A) (A) (B) (A) (A) (B)
                 (A) (B) (B) (A) (A) (B) (A) (B) (B) (A) (A) (B)
                 (A) (B) (B) (B) (A) (A) (A) (B) (A) (A) (B) (B)
                 (B) (A) (A) (A) (B) (B) (B) (A) (B) (A) (B) (A)
                 (B) (A) (A) (B) (A) (A) (B) (A) (B) (A) (B) (B)
                 (A) (A) (B) (B) (B) (A) (B) (B) (A) (B) (A) (A)
                 (B) (A) (A) (A) (B) (B) (B) (A) (A) (A) (B) (B)
                 (A) (A) (B) (B) (A) (B) (B) (B) (A) (A) (A) (B)
                 (B) (A) (A) (B) (B) (B) (A) (B) (A) (A) (A) (B)
                 (A) (B) (B) (A) (A) (A) (B) (B) (B) (A) (B) (A)
                 (B) (A) (A) (A) (B) (B) (A) (B) (B) (A) (B) (A)
                 (B) (B) (A) (A) (A) (B) (A) (B) (B) (A) (B) (A)
                 (B) (A) (B) (A) (A) (A) (B) (B) (A) (A) (B) (B)
                 (A) (B) (B) (A) (A) (B) (A) (A) (B) (B) (B) (A)
                 (A) (B) (A) (A) (B) (B) (A) (B) (B) (A) (A) (B)
                 (B) (A) (B) (A) (A) (B) (A) (B) (B) (A) (B) (A)
                 (A) (B) (A) (B) (A) (B) (A) (B) (B) (A) (A) (B)
 The electronic state is 7-B.
 Alpha  occ. eigenvalues --  -19.22236 -19.22235 -19.22233 -19.22233 -19.22071
 Alpha  occ. eigenvalues --  -19.22067 -19.19449 -19.19449 -19.19449 -19.19449
 Alpha  occ. eigenvalues --  -14.48036 -14.48035 -14.48035 -14.48034 -10.35013
 Alpha  occ. eigenvalues --  -10.35012 -10.35012 -10.35011 -10.31566 -10.31565
 Alpha  occ. eigenvalues --  -10.31564 -10.31563 -10.31470 -10.31468 -10.31468
 Alpha  occ. eigenvalues --  -10.31467 -10.29640 -10.29640 -10.29640 -10.29639
 Alpha  occ. eigenvalues --  -10.28629 -10.28629 -10.28629 -10.28628 -10.28121
 Alpha  occ. eigenvalues --  -10.28121 -10.28121 -10.28121  -3.52009  -3.51978
 Alpha  occ. eigenvalues --   -2.24321  -2.24294  -2.24270  -2.24058  -2.23988
 Alpha  occ. eigenvalues --   -2.23890  -1.09988  -1.09942  -1.09646  -1.09639
 Alpha  occ. eigenvalues --   -1.03835  -1.03595  -1.03520  -1.03352  -1.01054
 Alpha  occ. eigenvalues --   -1.00966  -1.00824  -1.00819  -0.96147  -0.93634
 Alpha  occ. eigenvalues --   -0.87424  -0.87399  -0.87374  -0.87317  -0.83885
 Alpha  occ. eigenvalues --   -0.83884  -0.83855  -0.83814  -0.71077  -0.71040
 Alpha  occ. eigenvalues --   -0.71036  -0.70915  -0.69595  -0.69545  -0.69408
 Alpha  occ. eigenvalues --   -0.69379  -0.62026  -0.61784  -0.61649  -0.61489
 Alpha  occ. eigenvalues --   -0.56987  -0.56597  -0.55741  -0.55630  -0.55002
 Alpha  occ. eigenvalues --   -0.54911  -0.54870  -0.54672  -0.52528  -0.52341
 Alpha  occ. eigenvalues --   -0.52101  -0.52090  -0.50613  -0.50537  -0.50103
 Alpha  occ. eigenvalues --   -0.49665  -0.49474  -0.49188  -0.49056  -0.48912
 Alpha  occ. eigenvalues --   -0.48822  -0.48624  -0.48230  -0.47948  -0.47054
 Alpha  occ. eigenvalues --   -0.46194  -0.46069  -0.44995  -0.44647  -0.44642
 Alpha  occ. eigenvalues --   -0.44313  -0.43892  -0.43309  -0.43114  -0.42892
 Alpha  occ. eigenvalues --   -0.42840  -0.42742  -0.42570  -0.42446  -0.42274
 Alpha  occ. eigenvalues --   -0.42123  -0.41552  -0.41363  -0.40471  -0.40329
 Alpha  occ. eigenvalues --   -0.36928  -0.36924  -0.36588  -0.35913  -0.35344
 Alpha  occ. eigenvalues --   -0.34992  -0.34323  -0.34223  -0.34042  -0.32801
 Alpha  occ. eigenvalues --   -0.31850  -0.31400  -0.31289  -0.31242  -0.31119
 Alpha  occ. eigenvalues --   -0.30695  -0.29702  -0.29467  -0.29222  -0.29206
 Alpha  occ. eigenvalues --   -0.29098  -0.28722  -0.28281  -0.27556  -0.27311
 Alpha  occ. eigenvalues --   -0.27261  -0.27194
 Alpha virt. eigenvalues --   -0.11225  -0.10652  -0.08212  -0.07995  -0.07915
 Alpha virt. eigenvalues --   -0.07704  -0.07691  -0.06834  -0.05762  -0.05526
 Alpha virt. eigenvalues --   -0.05488  -0.05253   0.00129   0.01787   0.04277
 Alpha virt. eigenvalues --    0.05324   0.05443   0.05506   0.05703   0.05866
 Alpha virt. eigenvalues --    0.07172   0.07895   0.08045   0.08521   0.09271
 Alpha virt. eigenvalues --    0.09637   0.10319   0.10514   0.10701   0.12910
 Alpha virt. eigenvalues --    0.14137   0.14148   0.14201   0.14400   0.14545
 Alpha virt. eigenvalues --    0.15017   0.15112   0.16292   0.16581   0.16722
 Alpha virt. eigenvalues --    0.16766   0.16965   0.18567   0.18869   0.19775
 Alpha virt. eigenvalues --    0.19838   0.21506   0.21536   0.21808   0.22231
 Alpha virt. eigenvalues --    0.22283   0.23913   0.24369   0.24483   0.25017
 Alpha virt. eigenvalues --    0.26902   0.27017   0.27024   0.27773   0.27990
 Alpha virt. eigenvalues --    0.28006   0.28512   0.28621   0.28739   0.28794
 Alpha virt. eigenvalues --    0.29176   0.29444   0.30361   0.30365   0.30859
 Alpha virt. eigenvalues --    0.31176   0.31504   0.32257   0.32343   0.33952
 Alpha virt. eigenvalues --    0.34550   0.34886   0.35150   0.35296   0.36301
 Alpha virt. eigenvalues --    0.36851   0.37506   0.37751   0.40064   0.40797
 Alpha virt. eigenvalues --    0.40831   0.44005   0.45003   0.46204   0.46513
 Alpha virt. eigenvalues --    0.46922   0.48422   0.48591   0.49260   0.49759
 Alpha virt. eigenvalues --    0.50127   0.50365   0.51069   0.51334   0.51633
 Alpha virt. eigenvalues --    0.51792   0.52219   0.53301   0.54125   0.55048
 Alpha virt. eigenvalues --    0.55131   0.55247   0.55475   0.55577   0.58383
 Alpha virt. eigenvalues --    0.58839   0.58877   0.58992   0.59262   0.59302
 Alpha virt. eigenvalues --    0.59795   0.59797   0.60609   0.60625   0.60712
 Alpha virt. eigenvalues --    0.61142   0.61246   0.62458   0.62552   0.64114
 Alpha virt. eigenvalues --    0.64294   0.64459   0.65360   0.65464   0.65543
 Alpha virt. eigenvalues --    0.65572   0.65939   0.66582   0.66792   0.66806
 Alpha virt. eigenvalues --    0.68220   0.70188   0.70303   0.70381   0.70862
 Alpha virt. eigenvalues --    0.71674   0.71871   0.73463   0.73771   0.73778
 Alpha virt. eigenvalues --    0.74956   0.75934   0.76205   0.77996   0.78179
 Alpha virt. eigenvalues --    0.78193   0.78354   0.78842   0.79917   0.79930
 Alpha virt. eigenvalues --    0.80288   0.80407   0.80556   0.80625   0.80745
 Alpha virt. eigenvalues --    0.81491   0.81880   0.82904   0.82968   0.83108
 Alpha virt. eigenvalues --    0.83930   0.84618   0.84921   0.85188   0.85383
 Alpha virt. eigenvalues --    0.86204   0.86611   0.88756   0.89196   0.89529
 Alpha virt. eigenvalues --    0.89531   0.89898   0.90901   0.91783   0.92056
 Alpha virt. eigenvalues --    0.93226   0.93427   0.94539   0.94972   0.95004
 Alpha virt. eigenvalues --    0.96004   0.96525   0.96580   0.97446   0.97452
 Alpha virt. eigenvalues --    0.99162   1.01261   1.01374   1.01443   1.02007
 Alpha virt. eigenvalues --    1.02850   1.03529   1.03912   1.04679   1.04838
 Alpha virt. eigenvalues --    1.04978   1.05159   1.06172   1.06787   1.07606
 Alpha virt. eigenvalues --    1.07904   1.08321   1.08571   1.08822   1.09683
 Alpha virt. eigenvalues --    1.11396   1.12233   1.12832   1.13236   1.14371
 Alpha virt. eigenvalues --    1.14594   1.15036   1.15245   1.15287   1.16447
 Alpha virt. eigenvalues --    1.16482   1.16894   1.17817   1.18426   1.18779
 Alpha virt. eigenvalues --    1.19460   1.19932   1.20619   1.20690   1.22520
 Alpha virt. eigenvalues --    1.22527   1.23305   1.23768   1.24791   1.25599
 Alpha virt. eigenvalues --    1.25606   1.27074   1.27162   1.27503   1.27927
 Alpha virt. eigenvalues --    1.28112   1.29506   1.31119   1.31225   1.31465
 Alpha virt. eigenvalues --    1.31826   1.31869   1.32271   1.32952   1.33315
 Alpha virt. eigenvalues --    1.33389   1.34623   1.34986   1.35911   1.35934
 Alpha virt. eigenvalues --    1.36362   1.36533   1.36817   1.36904   1.37352
 Alpha virt. eigenvalues --    1.37668   1.38643   1.38987   1.39936   1.40062
 Alpha virt. eigenvalues --    1.40432   1.40997   1.43178   1.43245   1.44703
 Alpha virt. eigenvalues --    1.45249   1.45746   1.47003   1.47646   1.48210
 Alpha virt. eigenvalues --    1.49254   1.49421   1.49578   1.52719   1.52765
 Alpha virt. eigenvalues --    1.53370   1.54344   1.55582   1.55971   1.56186
 Alpha virt. eigenvalues --    1.56492   1.60901   1.62107   1.63466   1.64805
 Alpha virt. eigenvalues --    1.65001   1.66212   1.66827   1.68893   1.69186
 Alpha virt. eigenvalues --    1.69621   1.70624   1.71580   1.71936   1.72674
 Alpha virt. eigenvalues --    1.73521   1.73827   1.74503   1.74870   1.74996
 Alpha virt. eigenvalues --    1.75721   1.76313   1.76427   1.76634   1.77044
 Alpha virt. eigenvalues --    1.78018   1.78252   1.79086   1.79285   1.80035
 Alpha virt. eigenvalues --    1.80518   1.80683   1.82563   1.83619   1.84182
 Alpha virt. eigenvalues --    1.85455   1.85889   1.86206   1.86393   1.86898
 Alpha virt. eigenvalues --    1.87785   1.87886   1.88432   1.88578   1.89017
 Alpha virt. eigenvalues --    1.89942   1.90041   1.90539   1.91565   1.91829
 Alpha virt. eigenvalues --    1.92356   1.92484   1.93352   1.93716   1.93741
 Alpha virt. eigenvalues --    1.94771   1.95308   1.95720   1.95840   1.96058
 Alpha virt. eigenvalues --    1.96227   1.96693   1.97370   1.98316   1.99263
 Alpha virt. eigenvalues --    1.99936   2.00676   2.01145   2.01675   2.01718
 Alpha virt. eigenvalues --    2.01973   2.04023   2.04521   2.04930   2.05532
 Alpha virt. eigenvalues --    2.06705   2.06706   2.07505   2.07742   2.07900
 Alpha virt. eigenvalues --    2.08011   2.09822   2.10268   2.10765   2.12219
 Alpha virt. eigenvalues --    2.12903   2.13087   2.13517   2.14312   2.15739
 Alpha virt. eigenvalues --    2.17062   2.17075   2.17193   2.17701   2.22070
 Alpha virt. eigenvalues --    2.22255   2.23081   2.23511   2.23541   2.25596
 Alpha virt. eigenvalues --    2.26165   2.26519   2.26669   2.28425   2.28547
 Alpha virt. eigenvalues --    2.29180   2.29433   2.29701   2.30208   2.31278
 Alpha virt. eigenvalues --    2.31984   2.32895   2.33294   2.33402   2.34012
 Alpha virt. eigenvalues --    2.34324   2.34325   2.34719   2.35092   2.35436
 Alpha virt. eigenvalues --    2.35667   2.36394   2.39165   2.39222   2.39290
 Alpha virt. eigenvalues --    2.40178   2.41454   2.41644   2.42012   2.43693
 Alpha virt. eigenvalues --    2.44100   2.44875   2.45546   2.46559   2.48497
 Alpha virt. eigenvalues --    2.48725   2.48962   2.49313   2.49411   2.49537
 Alpha virt. eigenvalues --    2.50861   2.51451   2.51501   2.51732   2.52192
 Alpha virt. eigenvalues --    2.53267   2.53363   2.53875   2.54008   2.55082
 Alpha virt. eigenvalues --    2.56463   2.56561   2.56899   2.57363   2.57478
 Alpha virt. eigenvalues --    2.58710   2.58775   2.62216   2.62590   2.62608
 Alpha virt. eigenvalues --    2.63354   2.63404   2.63914   2.66647   2.67197
 Alpha virt. eigenvalues --    2.68868   2.69336   2.69662   2.70656   2.70978
 Alpha virt. eigenvalues --    2.71167   2.71229   2.71901   2.72444   2.73641
 Alpha virt. eigenvalues --    2.75286   2.75417   2.75634   2.75814   2.76614
 Alpha virt. eigenvalues --    2.76697   2.76819   2.77788   2.77890   2.78861
 Alpha virt. eigenvalues --    2.84569   2.84846   2.85166   2.85471   2.89264
 Alpha virt. eigenvalues --    2.91201   2.93008   2.93758   2.96356   2.98020
 Alpha virt. eigenvalues --    3.00427   3.00815   3.00950   3.01067   3.01706
[...]
 ! D64   D(16,2,9,31)            2.3974         -DE/DX =    0.0                 !
 ! D65   D(1,2,15,26)          -53.901          -DE/DX =    0.0                 !
 ! D66   D(1,2,15,27)          132.8682         -DE/DX =    0.0                 !
 ! D67   D(3,2,15,26)          -13.1209         -DE/DX =    0.0                 !
 ! D68   D(3,2,15,27)          173.6483         -DE/DX =    0.0                 !
 ! D69   D(6,2,15,26)          -95.7506         -DE/DX =    0.0                 !
 ! D70   D(6,2,15,27)           91.0186         -DE/DX =    0.0                 !
 ! D71   D(8,2,15,26)          173.288          -DE/DX =    0.0                 !
 ! D72   D(8,2,15,27)            0.0572         -DE/DX =    0.0                 !
 ! D73   D(9,2,15,26)           79.5147         -DE/DX =    0.0                 !
 ! D74   D(9,2,15,27)          -93.7161         -DE/DX =    0.0                 !
 ! D75   D(16,2,15,26)         126.0991         -DE/DX =    0.0                 !
 ! D76   D(16,2,15,27)         -47.1316         -DE/DX =    0.0                 !
 ! D77   D(1,2,16,28)          -53.9011         -DE/DX =    0.0                 !
 ! D78   D(1,2,16,29)          132.8683         -DE/DX =    0.0                 !
 ! D79   D(3,2,16,28)          -95.7506         -DE/DX =    0.0                 !
 ! D80   D(3,2,16,29)           91.0187         -DE/DX =    0.0                 !
 ! D81   D(6,2,16,28)          -13.121          -DE/DX =    0.0                 !
 ! D82   D(6,2,16,29)          173.6484         -DE/DX =    0.0                 !
 ! D83   D(8,2,16,28)           79.5146         -DE/DX =    0.0                 !
 ! D84   D(8,2,16,29)          -93.716          -DE/DX =    0.0                 !
 ! D85   D(9,2,16,28)          173.288          -DE/DX =    0.0                 !
 ! D86   D(9,2,16,29)            0.0573         -DE/DX =    0.0                 !
 ! D87   D(15,2,16,28)         126.0988         -DE/DX =    0.0                 !
 ! D88   D(15,2,16,29)         -47.1318         -DE/DX =    0.0                 !
 ! D89   D(1,4,22,5)           176.6046         -DE/DX =    0.0                 !
 ! D90   D(1,4,22,21)           -4.0288         -DE/DX =    0.0                 !
 ! D91   D(1,7,25,10)          176.6031         -DE/DX =    0.0                 !
 ! D92   D(1,7,25,24)           -4.0284         -DE/DX =    0.0                 !
 ! D93   D(2,8,30,11)          176.6031         -DE/DX =    0.0                 !
 ! D94   D(2,8,30,27)           -4.0284         -DE/DX =    0.0                 !
 ! D95   D(2,9,31,12)          176.6046         -DE/DX =    0.0                 !
 ! D96   D(2,9,31,29)           -4.0288         -DE/DX =    0.0                 !
 ! D97   D(1,13,17,18)        -174.6059         -DE/DX =    0.0                 !
 ! D98   D(1,13,17,41)           5.1288         -DE/DX =    0.0                 !
 ! D99   D(21,13,17,18)         -1.8937         -DE/DX =    0.0                 !
 ! D100  D(21,13,17,41)        177.841          -DE/DX =    0.0                 !
 ! D101  D(1,13,21,20)         176.0314         -DE/DX =    0.0                 !
 ! D102  D(1,13,21,22)          -2.101          -DE/DX =    0.0                 !
 ! D103  D(17,13,21,20)          2.4668         -DE/DX =    0.0                 !
 ! D104  D(17,13,21,22)       -175.6657         -DE/DX =    0.0                 !
 ! D105  D(1,14,23,32)        -174.6061         -DE/DX =    0.0                 !
 ! D106  D(1,14,23,45)           5.1287         -DE/DX =    0.0                 !
 ! D107  D(24,14,23,32)         -1.8937         -DE/DX =    0.0                 !
 ! D108  D(24,14,23,45)        177.8411         -DE/DX =    0.0                 !
 ! D109  D(1,14,24,25)          -2.1006         -DE/DX =    0.0                 !
 ! D110  D(1,14,24,33)         176.0316         -DE/DX =    0.0                 !
 ! D111  D(23,14,24,25)       -175.6654         -DE/DX =    0.0                 !
 ! D112  D(23,14,24,33)          2.4668         -DE/DX =    0.0                 !
 ! D113  D(2,15,26,34)        -174.6061         -DE/DX =    0.0                 !
 ! D114  D(2,15,26,46)           5.1287         -DE/DX =    0.0                 !
 ! D115  D(27,15,26,34)         -1.8937         -DE/DX =    0.0                 !
 ! D116  D(27,15,26,46)        177.8411         -DE/DX =    0.0                 !
 ! D117  D(2,15,27,30)          -2.1006         -DE/DX =    0.0                 !
 ! D118  D(2,15,27,35)         176.0316         -DE/DX =    0.0                 !
 ! D119  D(26,15,27,30)       -175.6654         -DE/DX =    0.0                 !
 ! D120  D(26,15,27,35)          2.4668         -DE/DX =    0.0                 !
 ! D121  D(2,16,28,36)        -174.6059         -DE/DX =    0.0                 !
 ! D122  D(2,16,28,47)           5.1288         -DE/DX =    0.0                 !
 ! D123  D(29,16,28,36)         -1.8937         -DE/DX =    0.0                 !
 ! D124  D(29,16,28,47)        177.841          -DE/DX =    0.0                 !
 ! D125  D(2,16,29,31)          -2.101          -DE/DX =    0.0                 !
 ! D126  D(2,16,29,37)         176.0314         -DE/DX =    0.0                 !
 ! D127  D(28,16,29,31)       -175.6657         -DE/DX =    0.0                 !
 ! D128  D(28,16,29,37)          2.4668         -DE/DX =    0.0                 !
 ! D129  D(13,17,18,19)          0.2347         -DE/DX =    0.0                 !
 ! D130  D(13,17,18,42)        179.7764         -DE/DX =    0.0                 !
 ! D131  D(41,17,18,19)       -179.4764         -DE/DX =    0.0                 !
 ! D132  D(41,17,18,42)          0.0653         -DE/DX =    0.0                 !
 ! D133  D(17,18,19,20)          0.8421         -DE/DX =    0.0                 !
 ! D134  D(17,18,19,43)        179.938          -DE/DX =    0.0                 !
 ! D135  D(42,18,19,20)       -178.6907         -DE/DX =    0.0                 !
 ! D136  D(42,18,19,43)          0.4052         -DE/DX =    0.0                 !
 ! D137  D(18,19,20,21)         -0.3154         -DE/DX =    0.0                 !
 ! D138  D(18,19,20,44)        178.6098         -DE/DX =    0.0                 !
 ! D139  D(43,19,20,21)       -179.4095         -DE/DX =    0.0                 !
 ! D140  D(43,19,20,44)         -0.4843         -DE/DX =    0.0                 !
 ! D141  D(19,20,21,13)         -1.3246         -DE/DX =    0.0                 !
 ! D142  D(19,20,21,22)        176.6354         -DE/DX =    0.0                 !
 ! D143  D(44,20,21,13)        179.6902         -DE/DX =    0.0                 !
 ! D144  D(44,20,21,22)         -2.3498         -DE/DX =    0.0                 !
 ! D145  D(13,21,22,4)           3.9768         -DE/DX =    0.0                 !
 ! D146  D(13,21,22,5)        -176.6071         -DE/DX =    0.0                 !
 ! D147  D(20,21,22,4)        -174.1074         -DE/DX =    0.0                 !
 ! D148  D(20,21,22,5)           5.3087         -DE/DX =    0.0                 !
 ! D149  D(14,23,32,38)          0.2347         -DE/DX =    0.0                 !
 ! D150  D(14,23,32,48)        179.7764         -DE/DX =    0.0                 !
 ! D151  D(45,23,32,38)       -179.4764         -DE/DX =    0.0                 !
 ! D152  D(45,23,32,48)          0.0652         -DE/DX =    0.0                 !
 ! D153  D(14,24,25,7)           3.9762         -DE/DX =    0.0                 !
 ! D154  D(14,24,25,10)       -176.6059         -DE/DX =    0.0                 !
 ! D155  D(33,24,25,7)        -174.1077         -DE/DX =    0.0                 !
 ! D156  D(33,24,25,10)          5.3102         -DE/DX =    0.0                 !
 ! D157  D(14,24,33,38)         -1.3246         -DE/DX =    0.0                 !
 ! D158  D(14,24,33,49)        179.6902         -DE/DX =    0.0                 !
 ! D159  D(25,24,33,38)        176.6352         -DE/DX =    0.0                 !
 ! D160  D(25,24,33,49)         -2.35           -DE/DX =    0.0                 !
 ! D161  D(15,26,34,39)          0.2347         -DE/DX =    0.0                 !
 ! D162  D(15,26,34,50)        179.7764         -DE/DX =    0.0                 !
 ! D163  D(46,26,34,39)       -179.4764         -DE/DX =    0.0                 !
 ! D164  D(46,26,34,50)          0.0652         -DE/DX =    0.0                 !
 ! D165  D(15,27,30,8)           3.9762         -DE/DX =    0.0                 !
 ! D166  D(15,27,30,11)       -176.6059         -DE/DX =    0.0                 !
 ! D167  D(35,27,30,8)        -174.1077         -DE/DX =    0.0                 !
 ! D168  D(35,27,30,11)          5.3102         -DE/DX =    0.0                 !
 ! D169  D(15,27,35,39)         -1.3246         -DE/DX =    0.0                 !
 ! D170  D(15,27,35,51)        179.6902         -DE/DX =    0.0                 !
 ! D171  D(30,27,35,39)        176.6352         -DE/DX =    0.0                 !
 ! D172  D(30,27,35,51)         -2.35           -DE/DX =    0.0                 !
 ! D173  D(16,28,36,40)          0.2347         -DE/DX =    0.0                 !
 ! D174  D(16,28,36,52)        179.7764         -DE/DX =    0.0                 !
 ! D175  D(47,28,36,40)       -179.4764         -DE/DX =    0.0                 !
 ! D176  D(47,28,36,52)          0.0653         -DE/DX =    0.0                 !
 ! D177  D(16,29,31,9)           3.9768         -DE/DX =    0.0                 !
 ! D178  D(16,29,31,12)       -176.6071         -DE/DX =    0.0                 !
 ! D179  D(37,29,31,9)        -174.1074         -DE/DX =    0.0                 !
 ! D180  D(37,29,31,12)          5.3087         -DE/DX =    0.0                 !
 ! D181  D(16,29,37,40)         -1.3246         -DE/DX =    0.0                 !
 ! D182  D(16,29,37,53)        179.6902         -DE/DX =    0.0                 !
 ! D183  D(31,29,37,40)        176.6354         -DE/DX =    0.0                 !
 ! D184  D(31,29,37,53)         -2.3498         -DE/DX =    0.0                 !
 ! D185  D(23,32,38,33)          0.8421         -DE/DX =    0.0                 !
 ! D186  D(23,32,38,54)        179.938          -DE/DX =    0.0                 !
 ! D187  D(48,32,38,33)       -178.6907         -DE/DX =    0.0                 !
 ! D188  D(48,32,38,54)          0.4052         -DE/DX =    0.0                 !
 ! D189  D(24,33,38,32)         -0.3154         -DE/DX =    0.0                 !
 ! D190  D(24,33,38,54)       -179.4094         -DE/DX =    0.0                 !
 ! D191  D(49,33,38,32)        178.6097         -DE/DX =    0.0                 !
 ! D192  D(49,33,38,54)         -0.4844         -DE/DX =    0.0                 !
 ! D193  D(26,34,39,35)          0.8421         -DE/DX =    0.0                 !
 ! D194  D(26,34,39,55)        179.938          -DE/DX =    0.0                 !
 ! D195  D(50,34,39,35)       -178.6907         -DE/DX =    0.0                 !
 ! D196  D(50,34,39,55)          0.4052         -DE/DX =    0.0                 !
 ! D197  D(27,35,39,34)         -0.3154         -DE/DX =    0.0                 !
 ! D198  D(27,35,39,55)       -179.4094         -DE/DX =    0.0                 !
 ! D199  D(51,35,39,34)        178.6097         -DE/DX =    0.0                 !
 ! D200  D(51,35,39,55)         -0.4844         -DE/DX =    0.0                 !
 ! D201  D(28,36,40,37)          0.8421         -DE/DX =    0.0                 !
 ! D202  D(28,36,40,56)        179.938          -DE/DX =    0.0                 !
 ! D203  D(52,36,40,37)       -178.6907         -DE/DX =    0.0                 !
 ! D204  D(52,36,40,56)          0.4052         -DE/DX =    0.0                 !
 ! D205  D(29,37,40,36)         -0.3154         -DE/DX =    0.0                 !
 ! D206  D(29,37,40,56)       -179.4095         -DE/DX =    0.0                 !
 ! D207  D(53,37,40,36)        178.6098         -DE/DX =    0.0                 !
 ! D208  D(53,37,40,56)         -0.4843         -DE/DX =    0.0                 !
 --------------------------------------------------------------------------------
 GradGradGradGradGradGradGradGradGradGradGradGradGradGradGradGradGradGrad

 Stoichiometry    C24H16Mn2N4O10(7)
 Framework group  C2[X(C24H16Mn2N4O10)]
 Deg. of freedom    82
 Full point group                 C2      NOp   2
 Largest Abelian subgroup         C2      NOp   2
 Largest concise Abelian subgroup C2      NOp   2
                         Standard orientation:                         
 ---------------------------------------------------------------------
 Center     Atomic      Atomic             Coordinates (Angstroms)
 Number     Number       Type             X           Y           Z
 ---------------------------------------------------------------------
      1         25           0       -1.357267    0.000002   -0.000000
      2         25           0        1.357267   -0.000002   -0.000000
      3          8           0        0.000002    1.193234    0.000000
      4          8           0       -2.683328   -1.372184   -0.300979
      5          8           0       -3.903425   -2.396610   -1.895904
      6          8           0       -0.000002   -1.193234    0.000000
      7          8           0       -2.683325    1.372191    0.300978
      8          8           0        2.683325   -1.372191    0.300978
      9          8           0        2.683328    1.372184   -0.300979
     10          8           0       -3.903405    2.396633    1.895905
     11          8           0        3.903405   -2.396633    1.895905
     12          8           0        3.903425    2.396610   -1.895904
     13          7           0       -1.646571    0.291441   -1.963043
     14          7           0       -1.646572   -0.291435    1.963042
     15          7           0        1.646572    0.291435    1.963042
     16          7           0        1.646571   -0.291441   -1.963043
     17          6           0       -1.125068    1.286241   -2.685326
     18          6           0       -1.483837    1.452879   -4.016274
     19          6           0       -2.399786    0.570815   -4.587954
     20          6           0       -2.947316   -0.444148   -3.811365
     21          6           0       -2.551495   -0.543983   -2.486683
     22          6           0       -3.120530   -1.550852   -1.513903
     23          6           0       -1.125070   -1.286235    2.685327
     24          6           0       -2.551491    0.543994    2.486683
     25          6           0       -3.120530    1.550858    1.513900
     26          6           0        1.125070    1.286235    2.685327
     27          6           0        2.551491   -0.543994    2.486683
     28          6           0        1.125068   -1.286241   -2.685326
     29          6           0        2.551495    0.543983   -2.486683
     30          6           0        3.120530   -1.550858    1.513900
     31          6           0        3.120530    1.550852   -1.513903
     32          6           0       -1.483836   -1.452869    4.016276
     33          6           0       -2.947310    0.444163    3.811365
     34          6           0        1.483836    1.452869    4.016276
     35          6           0        2.947310   -0.444163    3.811365
     36          6           0        1.483837   -1.452879   -4.016274
     37          6           0        2.947316    0.444148   -3.811365
     38          6           0       -2.399781   -0.570800    4.587956
     39          6           0        2.399781    0.570800    4.587956
     40          6           0        2.399786   -0.570815   -4.587954
     41          1           0       -0.427156    1.930146   -2.159159
     42          1           0       -1.053571    2.268209   -4.587267
     43          1           0       -2.693156    0.686118   -5.627322
     44          1           0       -3.680707   -1.153065   -4.180184
     45          1           0       -0.427161   -1.930143    2.159160
     46          1           0        0.427161    1.930143    2.159160
     47          1           0        0.427156   -1.930146   -2.159159
     48          1           0       -1.053572   -2.268198    4.587270
     49          1           0       -3.680699    1.153082    4.180185
     50          1           0        1.053572    2.268198    4.587270
     51          1           0        3.680699   -1.153082    4.180185
     52          1           0        1.053571   -2.268209   -4.587267
     53          1           0        3.680707    1.153065   -4.180184
     54          1           0       -2.693150   -0.686100    5.627325
     55          1           0        2.693150    0.686100    5.627325
     56          1           0        2.693156   -0.686118   -5.627322
 ---------------------------------------------------------------------
 Rotational constants (GHZ):      0.1139438      0.1030343      0.0673232
 1\1\GINC-CRUSHER-N022\FOpt\UPBE1PBE\Gen\C24H16Mn2N4O10(7)\ROOT\29-Nov-
 2020\0\\# opt upbe1pbe/gen geom=allcheck guess=read pseudo=read\\JAVYE
 K\\0,7\Mn,9.6884973285,3.2294980506,5.2887671999\Mn,9.6884980506,3.229
 4973285,2.5742328001\O,8.8447542176,4.0732419704,3.9314996355\O,10.445
 9559948,2.0463908103,6.6148266324\O,10.0425534732,0.19422941,7.8349227
 85\O,10.5322419704,2.3857542176,3.9315003645\O,8.931037902,4.412604756
 4,6.6148266571\O,10.8716047564,2.472037902,1.2481733429\O,8.5053908103
 ,3.9869559948,1.2481733676\O,9.3344328092,6.2647780345,7.8349073035\O,
 12.7237780345,2.8754328092,0.0280926965\O,6.65322941,3.5835534732,0.02
 8077215\N,8.0943382674,2.0474959593,5.5780717793\N,11.282655627,4.4115
 014114,5.5780716573\N,10.8705014114,4.823655627,2.2849283427\N,8.50649
 59593,1.6353382674,2.2849282207\C,6.8801765591,2.2401943914,5.05656907
 3\C,5.8212238682,1.4169033108,5.4153383511\C,6.0406998353,0.3889496472
 ,6.3312865665\C,7.3075187908,0.2203937671,6.8788158975\C,8.3148037473,
 1.0864908985,6.4829941239\C,9.7146276601,1.0623867453,7.0520282531\C,1
 2.4968174109,4.2188046616,5.0565684547\C,11.0621887276,5.3725079964,6.
 4829920828\C,9.6623669837,5.3966066724,7.0520317373\C,10.6778046616,6.
 0378174109,2.8064315453\C,11.8315079964,4.6031887276,1.3800079172\C,8.
 6991943914,0.4211765591,2.806430927\C,7.5454908985,1.8558037473,1.3800
 058761\C,11.8556066724,3.2033669837,0.8109682627\C,7.5213867453,3.2556
 276601,0.8109717469\C,13.5557684705,5.0420991147,5.4153348272\C,12.069
 4720048,6.238608452,6.878810935\C,11.5010991147,7.0967684705,2.4476651
 728\C,12.697608452,5.6104720048,0.984189065\C,7.8759033108,-0.63777613
 18,2.4476616489\C,6.6793937671,0.8485187908,0.9841841025\C,13.33629083
 16,6.0700544869,6.3312806978\C,12.5290544869,6.8772908316,1.5317193022
 \C,6.8479496472,-0.4183001647,1.5317134335\H,6.7969228788,3.0675605536
 ,4.3586582127\H,4.8409453748,1.5896753821,4.9850734117\H,5.2242235953,
 -0.2644629271,6.6246566345\H,7.5480044255,-0.5416818273,7.6122052441\H
 ,12.5800723771,3.3914374988,4.3586588904\H,9.8504374988,6.1210723771,3
 .5043411096\H,9.5265605536,0.3379228788,3.5043417873\H,14.5360468852,4
 .8693285296,4.9850690979\H,11.8289854447,7.0006842143,7.6121998282\H,1
 1.3283285296,8.0770468852,2.8779309021\H,13.4596842143,5.3699854447,0.
 2508001718\H,8.0486753821,-1.6180546252,2.8779265883\H,5.9173181727,1.
 0890044255,0.2507947559\H,14.1527658672,6.7234694253,6.6246487899\H,13
 .1824694253,7.6937658672,1.2383512101\H,6.1945370729,-1.2347764047,1.2
 383433655\\Version=EM64L-G09RevA.02\State=7-B\HF=-2102.2554385\S2=12.1
 59097\S2-1=0.\S2A=12.006586\RMSD=3.239e-09\RMSF=2.419e-06\Dipole=0.,0.
 ,0.\Quadrupole=22.2042362,22.2042362,-44.4084725,49.336785,0.0000085,-
 0.0000085\PG=C02 [X(C24H16Mn2N4O10)]\\@


 EVANS BOLDLY PUT 50 ATM. OF ETHYLENE IN A CELL WITH 25 ATM. OF OXYGEN.
 THE APPARATUS SUBSEQUENTLY BLEW UP, BUT LUCKILY NOT BEFORE HE
 OBTAINED THE SPECTRA SHOWN IN FIGURE 8.
 A.J.MERER AND R.S.MULLIKEN, CHEM.REV. 69, 645 (1969)
 Job cpu time:  0 days  0 hours 29 minutes 25.2 seconds.
 File lengths (MBytes):  RWF=    464 Int=      0 D2E=      0 Chk=     39 Scr=      1
 Normal termination of Gaussian 09 at Sun Nov 29 16:48:35 2020.
